x,NH3,C7H16,O2,N2,p,T
0,1.67982e-322,1,6.80643e-237,2.22045e-16,6.10194e+06,363
2e-05,0,1,4.574e-236,0,6.10194e+06,363
4e-05,1.63042e-322,1,8.75008e-235,0,6.10194e+06,363
6e-05,1.58101e-322,1,5.05133e-233,0,6.10194e+06,363
8e-05,3.45846e-323,1,7.18221e-232,1.11022e-16,6.10194e+06,363
0.0001,0,1,1.00878e-230,0,6.10194e+06,363
0.00012,0,1,1.40615e-229,0,6.10194e+06,363
0.00014,0,1,1.94765e-228,2.22045e-16,6.10194e+06,363
0.00016,0,1,7.23222e-228,3.33067e-16,6.10194e+06,363
0.00018,0,1,3.67034e-226,2.22045e-16,6.10194e+06,363
0.0002,1.97626e-323,1,4.99431e-225,1.11022e-16,6.10194e+06,363.001
0.00022,2.47033e-323,1,6.75614e-224,0,6.10194e+06,363.001
0.00024,0,1,9.08604e-223,3.33067e-16,6.10194e+06,363.001
0.00026,1.38338e-322,1,1.21479e-221,6.66134e-16,6.10194e+06,363.001
0.00028,3.95253e-323,1,1.61465e-220,3.33067e-16,6.10194e+06,363.001
0.0003,1.43279e-322,1,2.13356e-219,2.22045e-16,6.10194e+06,363.001
0.00032,4.19956e-322,1,7.73856e-219,0,6.10194e+06,363.001
0.00034,6.66297e-320,1,3.66009e-217,2.22045e-16,6.10194e+06,363.001
0.00036,1.71433e-318,1,4.7517e-216,1.11022e-16,6.10194e+06,363.001
0.00038,4.40132e-317,1,6.13262e-215,1.11022e-16,6.10194e+06,363.001
0.0004,1.12451e-315,1,7.86832e-214,4.44089e-16,6.10194e+06,363.001
0.00042,2.85856e-314,1,1.00358e-212,2.22045e-16,6.10194e+06,363.001
0.00044,7.22971e-313,1,1.2725e-211,0,6.10194e+06,363.001
0.00046,1.81921e-311,1,1.60397e-210,0,6.10194e+06,363.001
0.00048,4.55437e-310,1,2.00986e-209,0,6.10194e+06,363.001
0.0005,1.13437e-308,1,2.50358e-208,2.22045e-16,6.10194e+06,363.001
0.00052,2.81097e-307,1,3.10016e-207,1.11022e-16,6.10194e+06,363.001
0.00054,6.92995e-306,1,3.81619e-206,1.11022e-16,6.10194e+06,363.001
0.00056,1.6997e-304,1,4.6698e-205,1.11022e-16,6.10194e+06,363.002
0.00058,4.14745e-303,1,5.6805e-204,1.11022e-16,6.10194e+06,363.002
0.0006,1.00681e-301,1,6.86899e-203,2.22045e-16,6.10194e+06,363.002
0.00062,2.4315e-300,1,8.25687e-202,2.22045e-16,6.10194e+06,363.002
0.00064,5.84188e-299,1,9.86623e-201,5.55112e-16,6.10194e+06,363.002
0.00066,1.3963e-297,1,1.17192e-199,1.11022e-16,6.10194e+06,363.002
0.00068,3.3201e-296,1,1.38375e-198,2.22045e-16,6.10194e+06,363.002
0.0007,7.85353e-295,1,1.62414e-197,3.33067e-16,6.10194e+06,363.002
0.00072,1.84806e-293,1,1.89493e-196,3.33067e-16,6.10194e+06,363.002
0.00074,4.32613e-292,1,2.1977e-195,2.22045e-16,6.10194e+06,363.002
0.00076,1.00742e-290,1,2.53364e-194,1.11022e-16,6.10194e+06,363.002
0.00078,2.33373e-289,1,2.9035e-193,0,6.10194e+06,363.002
0.0008,5.37786e-288,1,3.30746e-192,0,6.10194e+06,363.002
0.00082,1.23278e-286,1,3.74511e-191,1.11022e-16,6.10194e+06,363.002
0.00084,2.81109e-285,1,4.21528e-190,6.66134e-16,6.10194e+06,363.002
0.00086,6.37638e-284,1,4.71606e-189,9.99201e-16,6.10194e+06,363.002
0.00088,1.43872e-282,1,5.24472e-188,1.22125e-15,6.10194e+06,363.003
0.0009,3.22911e-281,1,5.79764e-187,2.22045e-16,6.10194e+06,363.003
0.00092,7.20915e-280,1,6.37039e-186,3.33067e-16,6.10194e+06,363.003
0.00094,1.60095e-278,1,6.95766e-185,1.11022e-16,6.10194e+06,363.003
0.00096,3.5364e-277,1,7.55338e-184,1.11022e-16,6.10194e+06,363.003
0.00098,7.77014e-276,1,8.15076e-183,1.11022e-16,6.10194e+06,363.003
0.001,1.69815e-274,1,8.74242e-182,1.11022e-16,6.10194e+06,363.003
0.00102,3.69148e-273,1,9.32051e-181,6.66134e-16,6.10194e+06,363.003
0.00104,7.98173e-272,1,9.87688e-180,1.22125e-15,6.10194e+06,363.003
0.00106,1.71657e-270,1,1.04033e-178,1.22125e-15,6.10194e+06,363.003
0.00108,3.67189e-269,1,1.08915e-177,9.99201e-16,6.10194e+06,363.003
0.0011,7.81227e-268,1,1.13338e-176,1.11022e-15,6.10194e+06,363.003
0.00112,1.65318e-266,1,1.17226e-175,8.88178e-16,6.10194e+06,363.003
0.00114,3.47948e-265,1,1.20513e-174,1.22125e-15,6.10194e+06,363.003
0.00116,7.28375e-264,1,1.23142e-173,8.88178e-16,6.10194e+06,363.004
0.00118,1.51649e-262,1,1.25064e-172,1.11022e-15,6.10194e+06,363.004
0.0012,3.14022e-261,1,1.26246e-171,1.33227e-15,6.10194e+06,363.004
0.00122,6.4672e-260,1,1.26664e-170,8.88178e-16,6.10194e+06,363.004
0.00124,1.32465e-258,1,1.26311e-169,8.88178e-16,6.10194e+06,363.004
0.00126,2.69844e-257,1,1.25193e-168,7.77156e-16,6.10194e+06,363.004
0.00128,5.46695e-256,1,1.23329e-167,7.77156e-16,6.10194e+06,363.004
0.0013,1.10152e-254,1,1.20752e-166,1.22125e-15,6.10194e+06,363.004
0.00132,2.20727e-253,1,1.17508e-165,9.99201e-16,6.10194e+06,363.004
0.00134,4.3987e-252,1,1.13652e-164,6.66134e-16,6.10194e+06,363.004
0.00136,8.7176e-251,1,1.09252e-163,5.55112e-16,6.10194e+06,363.004
0.00138,1.71818e-249,1,1.0438e-162,8.88178e-16,6.10194e+06,363.004
0.0014,3.36771e-248,1,9.91151e-162,2.22045e-16,6.10194e+06,363.004
0.00142,6.56435e-247,1,9.35392e-161,0,6.10194e+06,363.004
0.00144,1.27243e-245,1,8.77359e-160,1.11022e-16,6.10194e+06,363.005
0.00146,2.45277e-244,1,8.17879e-159,2.22045e-16,6.10194e+06,363.005
0.00148,4.70173e-243,1,7.57751e-158,1.11022e-16,6.10194e+06,363.005
0.0015,8.96251e-242,1,6.97729e-157,0,6.10194e+06,363.005
0.00152,1.69891e-240,1,6.38512e-156,1.11022e-16,6.10194e+06,363.005
0.00154,3.20237e-239,1,5.80724e-155,3.33067e-16,6.10194e+06,363.005
0.00156,6.00251e-238,1,5.24914e-154,0,6.10194e+06,363.005
0.00158,1.11879e-236,1,4.71542e-153,1.11022e-16,6.10194e+06,363.005
0.0016,2.07353e-235,1,4.20985e-152,7.77156e-16,6.10194e+06,363.005
0.00162,3.82137e-234,1,3.73527e-151,7.77156e-16,6.10194e+06,363.005
0.00164,7.00272e-233,1,3.29371e-150,6.66134e-16,6.10194e+06,363.005
0.00166,1.27599e-231,1,2.8864e-149,8.88178e-16,6.10194e+06,363.005
0.00168,2.31186e-230,1,2.5138e-148,2.22045e-16,6.10194e+06,363.006
0.0017,4.16484e-229,1,2.17573e-147,2.22045e-16,6.10194e+06,363.006
0.00172,7.4603e-228,1,1.87146e-146,0,6.10194e+06,363.006
0.00174,1.32871e-226,1,1.59975e-145,1.11022e-16,6.10194e+06,363.006
0.00176,2.35295e-225,1,1.359e-144,0,6.10194e+06,363.006
0.00178,4.14288e-224,1,1.14731e-143,7.77156e-16,6.10194e+06,363.006
0.0018,7.25257e-223,1,9.62569e-143,6.66134e-16,6.10194e+06,363.006
0.00182,1.26234e-221,1,8.02548e-142,2.22045e-16,6.10194e+06,363.006
0.00184,2.1845e-220,1,6.64962e-141,4.44089e-16,6.10194e+06,363.006
0.00186,3.75849e-219,1,5.47528e-140,5.55112e-16,6.10194e+06,363.006
0.00188,6.42917e-218,1,4.4802e-139,3.33067e-16,6.10194e+06,363.006
0.0019,1.09338e-216,1,3.64308e-138,1.11022e-16,6.10194e+06,363.006
0.00192,1.84866e-215,1,2.94385e-137,4.44089e-16,6.10194e+06,363.007
0.00194,3.10746e-214,1,2.36396e-136,6.66134e-16,6.10194e+06,363.007
0.00196,5.19295e-213,1,1.88641e-135,7.77156e-16,6.10194e+06,363.007
0.00198,8.62734e-212,1,1.4959e-134,6.66134e-16,6.10194e+06,363.007
0.002,1.42491e-210,1,1.17879e-133,5.55112e-16,6.10194e+06,363.007
0.00202,2.33959e-209,1,9.23074e-133,3.33067e-16,6.10194e+06,363.007
0.00204,3.81882e-208,1,7.18292e-132,3.33067e-16,6.10194e+06,363.007
0.00206,1.53944e-207,1,1.99897e-131,6.66134e-16,6.10194e+06,363.007
0.00208,9.99534e-206,1,4.26787e-130,8.88178e-16,6.10194e+06,363.007
0.0021,1.60274e-204,1,3.25876e-129,6.66134e-16,6.10194e+06,363.007
0.00212,2.55473e-203,1,2.47257e-128,7.77156e-16,6.10194e+06,363.008
0.00214,4.04793e-202,1,1.86422e-127,6.66134e-16,6.10194e+06,363.008
0.00216,6.37564e-201,1,1.39667e-126,3.33067e-16,6.10194e+06,363.008
0.00218,9.98184e-200,1,1.03978e-125,1.11022e-16,6.10194e+06,363.008
0.0022,1.55342e-198,1,7.69188e-125,0,6.10194e+06,363.008
0.00222,2.40297e-197,1,5.65414e-124,1.11022e-16,6.10194e+06,363.008
0.00224,3.69477e-196,1,4.12991e-123,2.22045e-16,6.10194e+06,363.008
0.00226,5.64673e-195,1,2.99746e-122,2.22045e-16,6.10194e+06,363.008
0.00228,8.57772e-194,1,2.16174e-121,0,6.10194e+06,363.008
0.0023,1.29511e-192,1,1.54912e-120,0,6.10194e+06,363.008
0.00232,1.94353e-191,1,1.10306e-119,0,6.10194e+06,363.008
0.00234,2.89882e-190,1,7.80442e-119,0,6.10194e+06,363.009
0.00236,4.29726e-189,1,5.48667e-118,5.55112e-16,6.10194e+06,363.009
0.00238,6.3313e-188,1,3.83267e-117,2.22045e-16,6.10194e+06,363.009
0.0024,9.27086e-187,1,2.66021e-116,7.77156e-16,6.10194e+06,363.009
0.00242,1.34917e-185,1,1.83463e-115,7.77156e-16,6.10194e+06,363.009
0.00244,1.95129e-184,1,1.25719e-114,6.66134e-16,6.10194e+06,363.009
0.00246,2.80469e-183,1,8.55981e-114,2.22045e-16,6.10194e+06,363.009
0.00248,4.0063e-182,1,5.79083e-113,1.11022e-16,6.10194e+06,363.009
0.0025,5.68713e-181,1,3.89248e-112,3.33067e-16,6.10194e+06,363.009
0.00252,8.0228e-180,1,2.59968e-111,1.11022e-16,6.10194e+06,363.01
0.00254,1.12469e-178,1,1.72511e-110,0,6.10194e+06,363.01
0.00256,1.5668e-177,1,1.13741e-109,3.33067e-16,6.10194e+06,363.01
0.00258,2.16896e-176,1,7.45103e-109,0,6.10194e+06,363.01
0.0026,2.98362e-175,1,4.84967e-108,0,6.10194e+06,363.01
0.00262,4.07834e-174,1,3.1362e-107,0,6.10194e+06,363.01
0.00264,5.5394e-173,1,2.01505e-106,0,6.10194e+06,363.01
0.00266,7.47607e-172,1,1.28635e-105,0,6.10194e+06,363.01
0.00268,1.00255e-170,1,8.15865e-105,0,6.10194e+06,363.01
0.0027,1.33585e-169,1,5.14117e-104,4.44089e-16,6.10194e+06,363.011
0.00272,1.76856e-168,1,3.21876e-103,1.11022e-16,6.10194e+06,363.011
0.00274,2.32638e-167,1,2.00214e-102,4.44089e-16,6.10194e+06,363.011
0.00276,3.04044e-166,1,1.2373e-101,1.11022e-16,6.10194e+06,363.011
0.00278,3.948e-165,1,7.59682e-101,2.22045e-16,6.10194e+06,363.011
0.0028,5.09327e-164,1,4.63404e-100,0,6.10194e+06,363.011
0.00282,6.52811e-163,1,2.80838e-99,0,6.10194e+06,363.011
0.00284,8.31269e-162,1,1.69091e-98,1.11022e-16,6.10194e+06,363.011
0.00286,1.0516e-160,1,1.01145e-97,0,6.10194e+06,363.011
0.00288,1.32162e-159,1,6.01083e-97,1.11022e-16,6.10194e+06,363.012
0.0029,1.65008e-158,1,3.54879e-96,1.11022e-16,6.10194e+06,363.012
0.00292,2.0466e-157,1,2.08153e-95,0,6.10194e+06,363.012
0.00294,2.52167e-156,1,1.21294e-94,0,6.10194e+06,363.012
0.00296,3.08645e-155,1,7.02172e-94,3.33067e-16,6.10194e+06,363.012
0.00298,3.75268e-154,1,4.03828e-93,0,6.10194e+06,363.012
0.003,4.53236e-153,1,2.30725e-92,2.22045e-16,6.10194e+06,363.012
0.00302,5.43754e-152,1,1.30959e-91,0,6.10194e+06,363.012
0.00304,6.47989e-151,1,7.38437e-91,0,6.10194e+06,363.013
0.00306,7.67029e-150,1,4.13647e-90,3.33067e-16,6.10194e+06,363.013
0.00308,9.01838e-149,1,2.30186e-89,0,6.10194e+06,363.013
0.0031,1.0532e-147,1,1.27251e-88,3.33067e-16,6.10194e+06,363.013
0.00312,1.22165e-146,1,6.98826e-88,0,6.10194e+06,363.013
0.00314,1.40746e-145,1,3.81245e-87,1.11022e-16,6.10194e+06,363.013
0.00316,1.61052e-144,1,2.06614e-86,4.44089e-16,6.10194e+06,363.013
0.00318,1.83034e-143,1,1.11234e-85,1.11022e-16,6.10194e+06,363.013
0.0032,2.06598e-142,1,5.94882e-85,2.22045e-16,6.10194e+06,363.014
0.00322,2.31601e-141,1,3.16037e-84,0,6.10194e+06,363.014
0.00324,2.57851e-140,1,1.66785e-83,0,6.10194e+06,363.014
0.00326,2.85103e-139,1,8.74344e-83,4.44089e-16,6.10194e+06,363.014
0.00328,3.13065e-138,1,4.55317e-82,8.88178e-16,6.10194e+06,363.014
0.0033,3.41396e-137,1,2.35531e-81,1.11022e-16,6.10194e+06,363.014
0.00332,3.69715e-136,1,1.21027e-80,4.44089e-16,6.10194e+06,363.014
0.00334,3.97605e-135,1,6.17745e-80,3.33067e-16,6.10194e+06,363.015
0.00336,4.24626e-134,1,3.13207e-79,6.66134e-16,6.10194e+06,363.015
0.00338,4.50322e-133,1,1.57741e-78,6.66134e-16,6.10194e+06,363.015
0.0034,4.74237e-132,1,7.89121e-78,1.11022e-15,6.10194e+06,363.015
0.00342,4.95923e-131,1,3.92127e-77,7.77156e-16,6.10194e+06,363.015
0.00344,5.1496e-130,1,1.93549e-76,4.44089e-16,6.10194e+06,363.015
0.00346,5.30964e-129,1,9.48929e-76,2.22045e-16,6.10194e+06,363.015
0.00348,5.43603e-128,1,4.62116e-75,4.44089e-16,6.10194e+06,363.015
0.0035,5.52605e-127,1,2.23532e-74,7.77156e-16,6.10194e+06,363.016
0.00352,5.57772e-126,1,1.07398e-73,6.66134e-16,6.10194e+06,363.016
0.00354,5.58985e-125,1,5.12529e-73,1.11022e-16,6.10194e+06,363.016
0.00356,5.56207e-124,1,2.42942e-72,2.22045e-16,6.10194e+06,363.016
0.00358,5.49487e-123,1,1.14379e-71,3.33067e-16,6.10194e+06,363.016
0.0036,5.38958e-122,1,5.34866e-71,4.44089e-16,6.10194e+06,363.016
0.00362,5.24831e-121,1,2.48425e-70,4.44089e-16,6.10194e+06,363.016
0.00364,5.0739e-120,1,1.14603e-69,8.88178e-16,6.10194e+06,363.017
0.00366,4.86984e-119,1,5.251e-69,6.66134e-16,6.10194e+06,363.017
0.00368,4.6401e-118,1,2.38963e-68,4.44089e-16,6.10194e+06,363.017
0.0037,4.38906e-117,1,1.08008e-67,7.77156e-16,6.10194e+06,363.017
0.00372,4.12131e-116,1,4.84865e-67,5.55112e-16,6.10194e+06,363.017
0.00374,3.84158e-115,1,2.1618e-66,4.44089e-16,6.10194e+06,363.017
0.00376,3.55456e-114,1,9.57284e-66,2.22045e-16,6.10194e+06,363.017
0.00378,3.26475e-113,1,4.21008e-65,5.55112e-16,6.10194e+06,363.018
0.0038,2.97642e-112,1,1.83892e-64,4.44089e-16,6.10194e+06,363.018
0.00382,2.69342e-111,1,7.97724e-64,0,6.10194e+06,363.018
0.00384,2.41919e-110,1,3.43683e-63,2.22045e-16,6.10194e+06,363.018
0.00386,2.15665e-109,1,1.47053e-62,5.55112e-16,6.10194e+06,363.018
0.00388,1.90818e-108,1,6.24885e-62,6.66134e-16,6.10194e+06,363.018
0.0039,1.67563e-107,1,2.63712e-61,0,6.10194e+06,363.019
0.00392,1.4603e-106,1,1.10525e-60,3.33067e-16,6.10194e+06,363.019
0.00394,1.26298e-105,1,4.6003e-60,1.11022e-16,6.10194e+06,363.019
0.00396,1.084e-104,1,1.90155e-59,2.22045e-16,6.10194e+06,363.019
0.00398,9.23261e-104,1,7.80581e-59,7.77156e-16,6.10194e+06,363.019
0.004,7.80311e-103,1,3.1821e-58,1.33227e-15,6.10194e+06,363.019
0.00402,6.54401e-102,1,1.28823e-57,9.99201e-16,6.10194e+06,363.02
0.00404,5.4455e-101,1,5.17906e-57,1.33227e-15,6.10194e+06,363.02
0.00406,4.49607e-100,1,2.06768e-56,1.88738e-15,6.10194e+06,363.02
0.00408,3.6831e-99,1,8.19761e-56,8.88178e-16,6.10194e+06,363.02
0.0041,2.99338e-98,1,3.22744e-55,1.22125e-15,6.10194e+06,363.02
0.00412,8.50834e-98,1,6.38712e-55,9.99201e-16,6.10194e+06,363.02
0.00414,1.93062e-96,1,4.89876e-54,1.22125e-15,6.10194e+06,363.02
0.00416,1.53196e-95,1,1.88858e-53,1.22125e-15,6.10194e+06,363.021
0.00418,1.20585e-94,1,7.22997e-53,8.88178e-16,6.10194e+06,363.021
0.0042,9.41501e-94,1,2.74843e-52,9.99201e-16,6.10194e+06,363.021
0.00422,7.29135e-93,1,1.03747e-51,1.33227e-15,6.10194e+06,363.021
0.00424,5.60062e-92,1,3.88874e-51,1.11022e-15,6.10194e+06,363.021
0.00426,4.26665e-91,1,1.44736e-50,1.44329e-15,6.10194e+06,363.021
0.00428,3.22358e-90,1,5.34903e-50,7.77156e-16,6.10194e+06,363.022
0.0043,2.41531e-89,1,1.96292e-49,9.99201e-16,6.10194e+06,363.022
0.00432,1.79461e-88,1,7.15239e-49,7.77156e-16,6.10194e+06,363.022
0.00434,1.32223e-87,1,2.58773e-48,7.77156e-16,6.10194e+06,363.022
0.00436,9.6598e-87,1,9.29614e-48,6.66134e-16,6.10194e+06,363.022
0.00438,6.99726e-86,1,3.31586e-47,1.11022e-15,6.10194e+06,363.023
0.0044,5.02536e-85,1,1.17435e-46,8.88178e-16,6.10194e+06,363.023
0.00442,3.5782e-84,1,4.12951e-46,5.55112e-16,6.10194e+06,363.023
0.00444,2.52581e-83,1,1.44178e-45,5.55112e-16,6.10194e+06,363.023
0.00446,6.68883e-83,1,2.68679e-45,9.99201e-16,6.10194e+06,363.023
0.00448,1.22602e-81,1,1.72018e-44,9.99201e-16,6.10194e+06,363.023
0.0045,8.4298e-81,1,5.87815e-44,8.88178e-16,6.10194e+06,363.024
0.00452,5.74499e-80,1,1.99428e-43,1.11022e-15,6.10194e+06,363.024
0.00454,3.88054e-79,1,6.71752e-43,1.33227e-15,6.10194e+06,363.024
0.00456,2.59779e-78,1,2.24648e-42,9.99201e-16,6.10194e+06,363.024
0.00458,1.72347e-77,1,7.45868e-42,6.66134e-16,6.10194e+06,363.024
0.0046,1.13311e-76,1,2.45857e-41,6.66134e-16,6.10194e+06,363.024
0.00462,7.38219e-76,1,8.04566e-41,5.55112e-16,6.10194e+06,363.025
0.00464,4.76566e-75,1,2.61392e-40,1.11022e-16,6.10194e+06,363.025
0.00466,3.04835e-74,1,8.43085e-40,4.44089e-16,6.10194e+06,363.025
0.00468,1.93192e-73,1,2.69956e-39,3.33067e-16,6.10194e+06,363.025
0.0047,1.21304e-72,1,8.58132e-39,4.44089e-16,6.10194e+06,363.025
0.00472,7.54575e-72,1,2.70799e-38,4.44089e-16,6.10194e+06,363.026
0.00474,4.64998e-71,1,8.4834e-38,5.55112e-16,6.10194e+06,363.026
0.00476,2.83857e-70,1,2.63825e-37,1.11022e-16,6.10194e+06,363.026
0.00478,1.71644e-69,1,8.14482e-37,2.22045e-16,6.10194e+06,363.026
0.0048,1.02806e-68,1,2.49609e-36,0,6.10194e+06,363.026
0.00482,6.09886e-68,1,7.59362e-36,6.66134e-16,6.10194e+06,363.026
0.00484,3.58344e-67,1,2.29319e-35,6.66134e-16,6.10194e+06,363.027
0.00486,2.08523e-66,1,6.87435e-35,3.33067e-16,6.10194e+06,363.027
0.00488,1.20168e-65,1,2.04558e-34,8.88178e-16,6.10194e+06,363.027
0.0049,6.8579e-65,1,6.04212e-34,1.11022e-15,6.10194e+06,363.027
0.00492,3.87558e-64,1,1.77152e-33,1.55431e-15,6.10194e+06,363.027
0.00494,2.16875e-63,1,5.15562e-33,1.44329e-15,6.10194e+06,363.028
0.00496,1.20169e-62,1,1.48932e-32,1.11022e-15,6.10194e+06,363.028
0.00498,6.59273e-62,1,4.27036e-32,9.99201e-16,6.10194e+06,363.028
0.005,3.58107e-61,1,1.21535e-31,1.33227e-15,6.10194e+06,363.028
0.00502,1.92583e-60,1,3.43319e-31,9.99201e-16,6.10194e+06,363.028
0.00504,1.02532e-59,1,9.62596e-31,1.11022e-15,6.10194e+06,363.029
0.00506,5.40416e-59,1,2.67878e-30,1.22125e-15,6.10194e+06,363.029
0.00508,2.8197e-58,1,7.39895e-30,7.77156e-16,6.10194e+06,363.029
0.0051,1.45636e-57,1,2.02833e-29,8.88178e-16,6.10194e+06,363.029
0.00512,3.29717e-57,1,3.34886e-29,1.11022e-15,6.10194e+06,363.029
0.00514,3.76799e-56,1,1.49025e-28,1.55431e-15,6.10194e+06,363.03
0.00516,1.88737e-55,1,3.99393e-28,1.66533e-15,6.10194e+06,363.03
0.00518,9.35693e-55,1,1.06232e-27,1.33227e-15,6.10194e+06,363.03
0.0052,4.59122e-54,1,2.80424e-27,3.33067e-16,6.10194e+06,363.03
0.00522,2.22959e-53,1,7.34643e-27,1.22125e-15,6.10194e+06,363.03
0.00524,1.07155e-52,1,1.91e-26,1.11022e-15,6.10194e+06,363.031
0.00526,5.09656e-52,1,4.92811e-26,5.55112e-16,6.10194e+06,363.031
0.00528,2.39887e-51,1,1.26186e-25,6.66134e-16,6.10194e+06,363.031
0.0053,1.11735e-50,1,3.20642e-25,1.11022e-15,6.10194e+06,363.031
0.00532,5.15004e-50,1,8.08539e-25,1.44329e-15,6.10194e+06,363.031
0.00534,2.34889e-49,1,2.02324e-24,1.11022e-15,6.10194e+06,363.032
0.00536,1.06007e-48,1,5.02405e-24,2.22045e-16,6.10194e+06,363.032
0.00538,4.73388e-48,1,1.23798e-23,0,6.10194e+06,363.032
0.0054,2.0917e-47,1,3.02708e-23,1.44329e-15,6.10194e+06,363.032
0.00542,9.14476e-47,1,7.3447e-23,1.33227e-15,6.10194e+06,363.032
0.00544,3.95575e-46,1,1.76832e-22,1.44329e-15,6.10194e+06,363.033
0.00546,1.69302e-45,1,4.2245e-22,1.11022e-15,6.10194e+06,363.033
0.00548,7.16907e-45,1,1.00141e-21,8.88178e-16,6.10194e+06,363.033
0.0055,3.00349e-44,1,2.35542e-21,1.66533e-15,6.10194e+06,363.033
0.00552,1.24494e-43,1,5.49712e-21,8.88178e-16,6.10194e+06,363.033
0.00554,5.10531e-43,1,1.27293e-20,4.44089e-16,6.10194e+06,363.034
0.00556,2.07131e-42,1,2.92465e-20,5.55112e-16,6.10194e+06,363.034
0.00558,8.31408e-42,1,6.66705e-20,0,6.10194e+06,363.034
0.0056,3.30163e-41,1,1.50792e-19,0,6.10194e+06,363.034
0.00562,1.29714e-40,1,3.38379e-19,1.11022e-16,6.10194e+06,363.034
0.00564,5.04181e-40,1,7.53356e-19,0,6.10194e+06,363.035
0.00566,1.9388e-39,1,1.66404e-18,6.66134e-16,6.10194e+06,363.035
0.00568,7.37608e-39,1,3.64657e-18,0,6.10194e+06,363.035
0.0057,2.77633e-38,1,7.92793e-18,1.11022e-16,6.10194e+06,363.035
0.00572,1.03389e-37,1,1.70994e-17,1.11022e-16,6.10194e+06,363.035
0.00574,3.80923e-37,1,3.65883e-17,6.66134e-16,6.10194e+06,363.036
0.00576,1.38859e-36,1,7.76671e-17,4.44089e-16,6.10194e+06,363.036
0.00578,5.00831e-36,1,1.63553e-16,7.77156e-16,6.10194e+06,363.036
0.0058,1.78732e-35,1,3.41665e-16,8.88178e-16,6.10194e+06,363.036
0.00582,6.31127e-35,1,7.08037e-16,2.44249e-15,6.10194e+06,363.036
0.00584,2.20523e-34,1,1.45552e-15,6.55032e-15,6.10194e+06,363.037
0.00586,7.62479e-34,1,2.96812e-15,1.77636e-14,6.10194e+06,363.037
0.00588,2.60891e-33,1,6.00398e-15,3.87468e-14,6.10194e+06,363.037
0.0059,8.83421e-33,1,1.20472e-14,7.73825e-14,6.10194e+06,363.037
0.00592,2.96058e-32,1,2.39779e-14,1.53766e-13,6.10194e+06,363.038
0.00594,9.81999e-32,1,4.73383e-14,2.98539e-13,6.10194e+06,363.038
0.00596,3.22402e-31,1,9.27004e-14,5.77205e-13,6.10194e+06,363.038
0.00598,1.04777e-30,1,1.80058e-13,1.10456e-12,6.10194e+06,363.038
0.006,3.37093e-30,1,3.46896e-13,2.09166e-12,6.10194e+06,363.038
0.00602,1.07369e-29,1,6.6288e-13,3.92719e-12,6.10194e+06,363.039
0.00604,3.386e-29,1,1.25636e-12,7.31371e-12,6.10194e+06,363.039
0.00606,1.05734e-28,1,2.36172e-12,1.35083e-11,6.10194e+06,363.039
0.00608,3.26964e-28,1,4.40323e-12,2.47491e-11,6.10194e+06,363.039
0.0061,1.00134e-27,1,8.14213e-12,4.49866e-11,6.10194e+06,363.039
0.00612,3.03739e-27,1,1.49321e-11,8.11307e-11,6.10194e+06,363.04
0.00614,9.12646e-27,1,2.71587e-11,1.45158e-10,6.10194e+06,363.04
0.00616,2.71663e-26,1,4.8989e-11,2.57655e-10,6.10194e+06,363.04
0.00618,8.01176e-26,1,8.76351e-11,4.537e-10,6.10194e+06,363.04
0.0062,2.34122e-25,1,1.55466e-10,7.92538e-10,6.10194e+06,363.041
0.00622,6.77987e-25,1,2.73501e-10,1.37334e-09,6.10194e+06,363.041
0.00624,1.94586e-24,1,4.77124e-10,2.36061e-09,6.10194e+06,363.041
0.00626,5.53555e-24,1,8.25334e-10,4.02471e-09,6.10194e+06,363.042
0.00628,1.56105e-23,1,1.41556e-09,6.80575e-09,6.10194e+06,363.042
0.0063,4.36445e-23,1,2.40706e-09,1.14132e-08,6.10194e+06,363.043
0.00632,1.20989e-22,1,4.05752e-09,1.89793e-08,6.10194e+06,363.044
0.00634,3.32596e-22,1,6.77928e-09,3.12912e-08,6.10194e+06,363.045
0.00636,9.0675e-22,1,1.12246e-08,5.1138e-08,6.10194e+06,363.046
0.00638,2.45192e-21,1,1.84124e-08,8.28189e-08,6.10194e+06,363.048
0.0064,6.57687e-21,1,2.99125e-08,1.3287e-07,6.10194e+06,363.051
0.00642,1.75014e-20,1,4.81066e-08,2.11076e-07,6.10194e+06,363.055
0.00644,4.62072e-20,1,7.65434e-08,3.3183e-07,6.10194e+06,363.06
0.00646,1.21053e-19,0.999999,1.20401e-07,5.15857e-07,6.10194e+06,363.067
0.00648,3.1472e-19,0.999999,1.87043e-07,7.92256e-07,6.10194e+06,363.076
0.0065,8.12123e-19,0.999999,2.86607e-07,1.20059e-06,6.10194e+06,363.088
0.00652,2.0806e-18,0.999998,4.32476e-07,1.79248e-06,6.10194e+06,363.104
0.00654,5.29511e-18,0.999997,6.41348e-07,2.63165e-06,6.10194e+06,363.125
0.00656,1.34051e-17,0.999995,9.32511e-07,3.79113e-06,6.10194e+06,363.151
0.00658,3.38676e-17,0.999993,1.32605e-06,5.34679e-06,6.10194e+06,363.184
0.0066,8.60741e-17,0.999991,1.84086e-06,7.37076e-06,6.10194e+06,363.224
0.00662,2.24375e-16,0.999988,2.497e-06,9.94225e-06,6.10194e+06,363.275
0.00664,6.27608e-16,0.999983,3.33651e-06,1.32267e-05,6.10194e+06,363.338
0.00666,2.0213e-15,0.999978,4.47192e-06,1.7656e-05,6.10194e+06,363.423
0.00668,7.51175e-15,0.99997,6.07885e-06,2.38975e-05,6.10194e+06,363.537
0.0067,2.94891e-14,0.999959,8.33473e-06,3.26213e-05,6.10194e+06,363.689
0.00672,1.15225e-13,0.999944,1.14618e-05,4.46625e-05,6.10194e+06,363.891
0.00674,4.39315e-13,0.999923,1.57754e-05,6.12032e-05,6.10194e+06,364.156
0.00676,1.62528e-12,0.999894,2.17148e-05,8.38845e-05,6.10194e+06,364.504
0.00678,5.82396e-12,0.999855,2.98832e-05,0.000114953,6.10194e+06,364.96
0.0068,2.01958e-11,0.999801,4.11053e-05,0.00015747,6.10194e+06,365.554
0.00682,6.77235e-11,0.999728,5.65045e-05,0.000215592,6.10194e+06,366.326
0.00684,2.19446e-10,0.999627,7.76084e-05,0.000294954,6.10194e+06,367.325
0.00686,6.86534e-10,0.99949,0.000106489,0.000403174,6.10194e+06,368.61
0.00688,2.07175e-09,0.999304,0.000145951,0.000550524,6.10194e+06,370.253
0.0069,6.02419e-09,0.999049,0.000199772,0.000750803,6.10194e+06,372.337
0.00692,1.686e-08,0.998705,0.000273027,0.00102244,6.10194e+06,374.957
0.00694,4.5362e-08,0.998238,0.00037248,0.0013899,6.10194e+06,378.219
0.00696,1.17186e-07,0.997607,0.00050708,0.00188532,6.10194e+06,382.235
0.00698,2.90333e-07,0.996761,0.000688539,0.00255047,6.10194e+06,387.117
0.007,6.89125e-07,0.995628,0.000931985,0.00343886,6.10194e+06,392.975
0.00702,1.56571e-06,0.994124,0.00125666,0.00461783,6.10194e+06,399.904
0.00704,3.4033e-06,0.992139,0.00168657,0.00617062,6.10194e+06,407.984
0.00706,7.07593e-06,0.989544,0.00225117,0.00819791,6.10194e+06,417.267
0.00708,1.40756e-05,0.986181,0.00298572,0.0108189,6.10194e+06,427.784
0.0071,2.68067e-05,0.98187,0.0039317,0.0141718,6.10194e+06,439.539
0.00712,4.89318e-05,0.976401,0.00513688,0.0184134,6.10194e+06,452.514
0.00714,8.57339e-05,0.969541,0.00665527,0.0237185,6.10194e+06,466.677
0.00716,0.000144447,0.96103,0.00854701,0.0302787,6.10194e+06,481.986
0.00718,0.000234497,0.950586,0.0108781,0.0383013,6.10194e+06,498.393
0.0072,0.000367617,0.937905,0.01372,0.0480076,6.10194e+06,515.846
0.00722,0.000557791,0.922661,0.0171496,0.0596314,6.10194e+06,534.291
0.00724,0.000821035,0.904515,0.0212477,0.0734163,6.10194e+06,553.667
0.00726,0.00117502,0.883115,0.0260985,0.0896119,6.10194e+06,573.902
0.00728,0.00163853,0.858108,0.0317871,0.108466,6.10194e+06,594.903
0.0073,0.00223084,0.829159,0.0383956,0.130215,6.10194e+06,616.548
0.00732,0.00297085,0.795966,0.0459981,0.155065,6.10194e+06,638.672
0.00734,0.00387611,0.7583,0.0546521,0.183172,6.10194e+06,661.064
0.00736,0.00496152,0.716044,0.0643882,0.214607,6.10194e+06,683.455
0.00738,0.00623775,0.669245,0.075197,0.249321,6.10194e+06,705.527
0.0074,0.00770929,0.618174,0.087014,0.287102,6.10194e+06,726.92
0.00742,0.00937244,0.563381,0.0997061,0.32754,6.10194e+06,747.262
0.00744,0.0112134,0.505731,0.113062,0.369994,6.10194e+06,766.2
0.00746,0.0132069,0.446406,0.126791,0.413596,6.10194e+06,783.449
0.00748,0.0153166,0.38686,0.140539,0.457285,6.10194e+06,798.825
0.0075,0.0174968,0.328705,0.15391,0.499888,6.10194e+06,812.271
0.00752,0.0196965,0.273552,0.166516,0.540235,6.10194e+06,823.856
0.00754,0.0218643,0.22283,0.178017,0.577288,6.10194e+06,833.757
0.00756,0.0239546,0.17762,0.188162,0.610263,6.10194e+06,842.209
0.00758,0.0259313,0.138557,0.196815,0.638697,6.10194e+06,849.467
0.0076,0.0277705,0.105811,0.203951,0.662468,6.10194e+06,855.765
0.00762,0.02946,0.0791436,0.209647,0.681749,6.10194e+06,861.298
0.00764,0.0309984,0.0580143,0.214047,0.69694,6.10194e+06,866.21
0.00766,0.0323915,0.0416994,0.217337,0.708572,6.10194e+06,870.602
0.00768,0.0336499,0.0294045,0.219713,0.717232,6.10194e+06,874.543
0.0077,0.0347863,0.0203499,0.221365,0.723499,6.10194e+06,878.075
0.00772,0.0358137,0.0138262,0.222463,0.727897,6.10194e+06,881.231
0.00774,0.0367444,0.0092246,0.223149,0.730882,6.10194e+06,884.033
0.00776,0.0375889,0.00604479,0.223542,0.732825,6.10194e+06,886.505
0.00778,0.0383561,0.00389119,0.223731,0.734022,6.10194e+06,888.667
0.0078,0.0390504,0.00247648,0.223783,0.73469,6.10194e+06,890.536
0.00782,0.0396845,0.00153882,0.223754,0.735023,6.10194e+06,892.154
0.00784,0.0402564,0.000948477,0.223674,0.735121,6.10194e+06,893.527
0.00786,0.0405236,0.000736104,0.223624,0.735116,6.10194e+06,894.139
0.00788,0.0412479,0.00033459,0.223457,0.734961,6.10194e+06,895.688
0.0079,0.0414648,0.000254942,0.2234,0.734881,6.10194e+06,896.12
0.00792,0.0420473,0.000109807,0.223237,0.734606,6.10194e+06,897.197
0.00794,0.0423827,6.12445e-05,0.223139,0.734417,6.10194e+06,897.761
0.00796,0.0426792,3.35518e-05,0.223053,0.734234,6.10194e+06,898.222
0.00798,0.0429398,1.8053e-05,0.222977,0.734065,6.10194e+06,898.597
0.008,0.0431675,9.53992e-06,0.222912,0.733911,6.10194e+06,898.899
0.00802,0.0433653,4.95081e-06,0.222857,0.733773,6.10194e+06,899.143
0.00804,0.0435361,2.52303e-06,0.22281,0.733652,6.10194e+06,899.337
0.00806,0.0436825,1.26259e-06,0.22277,0.733546,6.10194e+06,899.491
0.00808,0.0438074,6.20411e-07,0.222738,0.733454,6.10194e+06,899.612
0.0081,0.0439132,2.99335e-07,0.222711,0.733376,6.10194e+06,899.707
0.00812,0.0440023,1.41802e-07,0.222689,0.733309,6.10194e+06,899.782
0.00814,0.0440769,6.59541e-08,0.222671,0.733252,6.10194e+06,899.839
0.00816,0.0441389,3.01178e-08,0.222656,0.733205,6.10194e+06,899.884
0.00818,0.0441902,1.35027e-08,0.222644,0.733166,6.10194e+06,899.918
0.0082,0.0442123,8.97884e-09,0.222639,0.733148,6.10194e+06,899.931
0.00822,0.0442668,2.56817e-09,0.222627,0.733106,6.10194e+06,899.963
0.00824,0.0442815,1.67657e-09,0.222624,0.733095,6.10194e+06,899.971
0.00826,0.0443172,4.53738e-10,0.222616,0.733066,6.10194e+06,899.989
0.00828,0.0443353,1.85515e-10,0.222613,0.733052,6.10194e+06,899.997
0.0083,0.0443497,7.44628e-11,0.22261,0.733041,6.10194e+06,900.003
0.00832,0.0443611,2.93417e-11,0.222607,0.733032,6.10194e+06,900.007
0.00834,0.0443701,1.13506e-11,0.222606,0.733024,6.10194e+06,900.01
0.00836,0.0443772,4.31063e-12,0.222604,0.733019,6.10194e+06,900.012
0.00838,0.0443826,1.60718e-12,0.222603,0.733014,6.10194e+06,900.014
0.0084,0.0443869,5.88319e-13,0.222602,0.733011,6.10194e+06,900.015
0.00842,0.0443901,2.11475e-13,0.222602,0.733008,6.10194e+06,900.015
0.00844,0.0443926,7.46811e-14,0.222601,0.733006,6.10194e+06,900.016
0.00846,0.0443945,2.59461e-14,0.222601,0.733005,6.10194e+06,900.016
0.00848,0.0443959,8.90368e-15,0.222601,0.733003,6.10194e+06,900.016
0.0085,0.044397,3.0478e-15,0.222601,0.733002,6.10194e+06,900.016
0.00852,0.0443978,1.05846e-15,0.2226,0.733002,6.10194e+06,900.015
0.00854,0.0443981,6.29798e-16,0.2226,0.733002,6.10194e+06,900.015
0.00856,0.0443988,1.39718e-16,0.2226,0.733001,6.10194e+06,900.015
0.00858,0.044399,8.4535e-17,0.2226,0.733001,6.10194e+06,900.015
0.0086,0.0443994,1.86438e-17,0.2226,0.733001,6.10194e+06,900.014
0.00862,0.0443995,6.73343e-18,0.2226,0.733,6.10194e+06,900.014
0.00864,0.0443997,2.40423e-18,0.2226,0.733,6.10194e+06,900.013
0.00866,0.0443998,8.48071e-19,0.2226,0.733,6.10194e+06,900.013
0.00868,0.0443998,2.95484e-19,0.2226,0.733,6.10194e+06,900.013
0.0087,0.0443999,1.01693e-19,0.2226,0.733,6.10194e+06,900.012
0.00872,0.0443999,3.4573e-20,0.2226,0.733,6.10194e+06,900.012
0.00874,0.0443999,1.16117e-20,0.2226,0.733,6.10194e+06,900.012
0.00876,0.0444,3.85296e-21,0.2226,0.733,6.10194e+06,900.011
0.00878,0.0444,1.26317e-21,0.2226,0.733,6.10194e+06,900.011
0.0088,0.0444,4.09192e-22,0.2226,0.733,6.10194e+06,900.011
0.00882,0.0444,1.30985e-22,0.2226,0.733,6.10194e+06,900.01
0.00884,0.0444,4.14361e-23,0.2226,0.733,6.10194e+06,900.01
0.00886,0.0444,1.29547e-23,0.2226,0.733,6.10194e+06,900.01
0.00888,0.0444,7.21183e-24,0.2226,0.733,6.10194e+06,900.01
0.0089,0.0444,1.22271e-24,0.2226,0.733,6.10194e+06,900.009
0.00892,0.0444,6.72829e-25,0.2226,0.733,6.10194e+06,900.009
0.00894,0.0444,1.10194e-25,0.2226,0.733,6.10194e+06,900.009
0.00896,0.0444,3.2518e-26,0.2226,0.733,6.10194e+06,900.008
0.00898,0.0444,9.48775e-27,0.2226,0.733,6.10194e+06,900.008
0.009,0.0444,2.73718e-27,0.2226,0.733,6.10194e+06,900.008
0.00902,0.0444,7.80857e-28,0.2226,0.733,6.10194e+06,900.008
0.00904,0.0444,2.20292e-28,0.2226,0.733,6.10194e+06,900.008
0.00906,0.0444,6.14624e-29,0.2226,0.733,6.10194e+06,900.007
0.00908,0.0444,1.69603e-29,0.2226,0.733,6.10194e+06,900.007
0.0091,0.0444,4.62911e-30,0.2226,0.733,6.10194e+06,900.007
0.00912,0.0444,1.24976e-30,0.2226,0.733,6.10194e+06,900.007
0.00914,0.0444,3.33773e-31,0.2226,0.733,6.10194e+06,900.006
0.00916,0.0444,8.81851e-32,0.2226,0.733,6.10194e+06,900.006