x,NH3,C7H16,O2,N2,p,T
0,1.67982e-322,1,0,2.22045e-16,6.10255e+06,363
2e-05,0,1,0,2.22045e-16,6.10255e+06,363
4e-05,1.63042e-322,1,1.4822e-322,2.22045e-16,6.10255e+06,363
6e-05,1.58101e-322,1,1.33398e-322,4.44089e-16,6.10255e+06,363
8e-05,3.45846e-323,1,0,2.22045e-16,6.10255e+06,363
0.0001,0,1,1.72923e-322,3.33067e-16,6.10255e+06,363
0.00012,0,1,0,4.44089e-16,6.10255e+06,363
0.00014,0,1,0,7.77156e-16,6.10255e+06,363
0.00016,0,1,1.58101e-322,1.11022e-15,6.10255e+06,363
0.00018,0,1,0,1.66533e-15,6.10255e+06,363
0.0002,1.97626e-323,1,0,1.44329e-15,6.10255e+06,363
0.00022,2.47033e-323,1,0,1.44329e-15,6.10255e+06,363
0.00024,0,1,1.5316e-322,1.33227e-15,6.10255e+06,363
0.00026,1.38338e-322,1,0,1.22125e-15,6.10255e+06,363
0.00028,3.95253e-323,1,1.33398e-322,2.22045e-16,6.10255e+06,363
0.0003,1.28457e-322,1,0,1.11022e-16,6.10255e+06,363
0.00032,1.43279e-322,1,0,2.22045e-16,6.10255e+06,363
0.00034,2.47033e-323,1,0,7.77156e-16,6.10255e+06,363
0.00036,1.33398e-322,1,0,2.22045e-16,6.10255e+06,363
0.00038,1.97626e-323,1,0,3.33067e-16,6.10255e+06,363
0.0004,1.67982e-322,1,0,0,6.10255e+06,363
0.00042,0,1,1.23516e-322,5.55112e-16,6.10255e+06,363
0.00044,0,1,0,8.88178e-16,6.10255e+06,363
0.00046,0,1,1.43279e-322,2.22045e-16,6.10255e+06,363
0.00048,0,1,1.58101e-322,6.66134e-16,6.10255e+06,363
0.0005,0,1,0,1.22125e-15,6.10255e+06,363
0.00052,1.38338e-322,1,0,1.33227e-15,6.10255e+06,363
0.00054,0,1,0,1.77636e-15,6.10255e+06,363
0.00056,1.38338e-322,1,1.38338e-322,9.99201e-16,6.10255e+06,363
0.00058,0,1,0,1.33227e-15,6.10255e+06,363
0.0006,0,1,1.33398e-322,9.99201e-16,6.10255e+06,363
0.00062,0,1,3.70549e-322,1.33227e-15,6.10255e+06,363
0.00064,0,1,6.42285e-322,1.44329e-15,6.10255e+06,363
0.00066,0,1,3.31024e-322,1.33227e-15,6.10255e+06,363
0.00068,1.58101e-322,1,6.62048e-322,1.44329e-15,6.10255e+06,363
0.0007,2.47033e-323,1,3.50787e-322,1.44329e-15,6.10255e+06,363
0.00072,0,1,6.66989e-322,1.33227e-15,6.10255e+06,363
0.00074,0,1,4.5454e-322,1.22125e-15,6.10255e+06,363
0.00076,0,1,6.52167e-322,1.33227e-15,6.10255e+06,363
0.00078,0,1,8.54734e-322,9.99201e-16,6.10255e+06,363
0.0008,0,1,1.16599e-321,1.44329e-15,6.10255e+06,363
0.00082,0,1,1.15117e-321,1.44329e-15,6.10255e+06,363
0.00084,0,1,1.13141e-321,1.44329e-15,6.10255e+06,363
0.00086,0,1,1.35868e-321,9.99201e-16,6.10255e+06,363
0.00088,2.47033e-323,1,1.13141e-321,1.33227e-15,6.10255e+06,363
0.0009,0,1,1.36856e-321,1.22125e-15,6.10255e+06,363
0.00092,0,1,1.99603e-321,1.33227e-15,6.10255e+06,363
0.00094,0,1,2.50491e-321,1.33227e-15,6.10255e+06,363
0.00096,0,1,2.54444e-321,1.11022e-15,6.10255e+06,363
0.00098,0,1,2.49009e-321,1.11022e-15,6.10255e+06,363
0.001,0,1,2.50985e-321,1.11022e-15,6.10255e+06,363
0.00102,0,1,2.55926e-321,1.11022e-15,6.10255e+06,363
0.00104,0,1,2.53456e-321,1.11022e-15,6.10255e+06,363
0.00106,0,1,2.56914e-321,1.33227e-15,6.10255e+06,363
0.00108,9.88131e-324,1,2.65313e-321,8.88178e-16,6.10255e+06,363
0.0011,1.23516e-322,1,2.66301e-321,7.77156e-16,6.10255e+06,363
0.00112,1.28457e-322,1,3.07309e-321,6.66134e-16,6.10255e+06,363
0.00114,0,1,3.16696e-321,7.77156e-16,6.10255e+06,363
0.00116,1.63042e-322,1,3.16696e-321,6.66134e-16,6.10255e+06,363
0.00118,0,1,3.19166e-321,6.66134e-16,6.10255e+06,363
0.0012,0,1,3.23613e-321,7.77156e-16,6.10255e+06,363
0.00122,1.38338e-322,1,3.13732e-321,7.77156e-16,6.10255e+06,363
0.00124,0,1,3.24601e-321,9.99201e-16,6.10255e+06,363
0.00126,0,1,3.17684e-321,5.55112e-16,6.10255e+06,363
0.00128,1.5316e-322,1,3.13732e-321,2.22045e-16,6.10255e+06,363
0.0013,0,1,3.24107e-321,8.88178e-16,6.10255e+06,363
0.00132,0,1,3.11261e-321,7.77156e-16,6.10255e+06,363
0.00134,0,1,3.24107e-321,3.33067e-16,6.10255e+06,363
0.00136,0,1,7.87541e-321,2.22045e-16,6.10255e+06,363
0.00138,0,1,1.42647e-319,4.44089e-16,6.10255e+06,363
0.0014,0,1,4.27915e-318,1.11022e-16,6.10255e+06,363
0.00142,0,1,1.30504e-316,2.22045e-16,6.10255e+06,363
0.00144,0,1,3.96362e-315,1.11022e-16,6.10255e+06,363
0.00146,0,1,1.19807e-313,1.11022e-16,6.10255e+06,363
0.00148,1.4822e-322,1,3.60396e-312,1.11022e-16,6.10255e+06,363
0.0015,1.63042e-322,1,1.0789e-310,6.66134e-16,6.10255e+06,363
0.00152,1.4822e-322,1,3.21425e-309,7.77156e-16,6.10255e+06,363
0.00154,0,1,9.52952e-308,8.88178e-16,6.10255e+06,363
0.00156,5.58294e-322,1,2.81157e-306,7.77156e-16,6.10255e+06,363
0.00158,2.68969e-320,1,8.25485e-305,8.88178e-16,6.10255e+06,363
0.0016,8.91838e-319,1,2.41182e-303,3.33067e-16,6.10255e+06,363
0.00162,2.94375e-317,1,7.01216e-302,2.22045e-16,6.10255e+06,363
0.00164,9.66959e-316,1,2.02873e-300,1.11022e-16,6.10255e+06,363
0.00166,3.16086e-314,1,5.84057e-299,1.11022e-16,6.10255e+06,363
0.00168,1.02822e-312,1,1.67317e-297,3.33067e-16,6.10255e+06,363
0.0017,3.32848e-311,1,4.76952e-296,3.33067e-16,6.10255e+06,363
0.00172,1.07221e-309,1,1.35286e-294,0,6.10255e+06,363
0.00174,3.43701e-308,1,3.81826e-293,0,6.10255e+06,363
0.00176,1.09634e-306,1,1.07229e-291,2.22045e-16,6.10255e+06,363
0.00178,3.47989e-305,1,2.99628e-290,0,6.10255e+06,363
0.0018,1.0991e-303,1,8.33056e-289,1.11022e-16,6.10255e+06,363
0.00182,3.45425e-302,1,2.30452e-287,7.77156e-16,6.10255e+06,363
0.00184,1.08022e-300,1,6.34299e-286,1.11022e-16,6.10255e+06,363
0.00186,3.36126e-299,1,1.73704e-284,7.77156e-16,6.10255e+06,363
0.00188,1.04069e-297,1,4.73287e-283,6.66134e-16,6.10255e+06,363
0.0019,3.20598e-296,1,1.28301e-281,9.99201e-16,6.10255e+06,363
0.00192,9.82689e-295,1,3.46033e-280,5.55112e-16,6.10255e+06,363
0.00194,2.99697e-293,1,9.28508e-279,8.88178e-16,6.10255e+06,363
0.00196,9.09393e-292,1,2.47872e-277,7.77156e-16,6.10255e+06,363
0.00198,2.74548e-290,1,6.58316e-276,2.22045e-16,6.10255e+06,363
0.002,8.24662e-289,1,1.73941e-274,0,6.10255e+06,363
0.00202,2.46444e-287,1,4.57221e-273,1.11022e-16,6.10255e+06,363
0.00204,7.32723e-286,1,1.19563e-271,1.11022e-16,6.10255e+06,363
0.00206,3.98763e-285,1,6.10222e-271,1.11022e-16,6.10255e+06,363
0.00208,6.37809e-283,1,8.04938e-269,0,6.10255e+06,363
0.0021,1.86727e-281,1,2.07225e-267,1.11022e-16,6.10255e+06,363
0.00212,5.43847e-280,1,5.30696e-266,2.22045e-16,6.10255e+06,363
0.00214,1.57576e-278,1,1.35197e-264,4.44089e-16,6.10255e+06,363
0.00216,4.54196e-277,1,3.42609e-263,3.33067e-16,6.10255e+06,363
0.00218,1.30235e-275,1,8.63645e-262,0,6.10255e+06,363
0.0022,3.71482e-274,1,2.16556e-260,3.33067e-16,6.10255e+06,363
0.00222,1.05406e-272,1,5.40127e-259,1.11022e-16,6.10255e+06,363
0.00224,2.9751e-271,1,1.34001e-257,1.11022e-16,6.10255e+06,363
0.00226,8.35302e-270,1,3.30672e-256,3.33067e-16,6.10255e+06,363
0.00228,2.33282e-268,1,8.11631e-255,1.11022e-16,6.10255e+06,363
0.0023,6.48049e-267,1,1.98146e-253,1.11022e-16,6.10255e+06,363
0.00232,1.79067e-265,1,4.8114e-252,0,6.10255e+06,363
0.00234,4.92152e-264,1,1.16201e-250,0,6.10255e+06,363
0.00236,1.34539e-262,1,2.79121e-249,0,6.10255e+06,363
0.00238,3.65813e-261,1,6.66829e-248,0,6.10255e+06,363
0.0024,9.89284e-260,1,1.58441e-246,1.11022e-16,6.10255e+06,363
0.00242,2.66089e-258,1,3.74409e-245,0,6.10255e+06,363
0.00244,7.11818e-257,1,8.79918e-244,2.22045e-16,6.10255e+06,363
0.00246,1.89383e-255,1,2.0566e-242,1.11022e-16,6.10255e+06,363
0.00248,5.0111e-254,1,4.78036e-241,1.11022e-16,6.10255e+06,363
0.0025,1.31868e-252,1,1.10502e-239,0,6.10255e+06,363
0.00252,3.45103e-251,1,2.5402e-238,0,6.10255e+06,363
0.00254,8.98164e-250,1,5.80695e-237,2.22045e-16,6.10255e+06,363
0.00256,2.32462e-248,1,1.32009e-235,0,6.10255e+06,363
0.00258,5.98314e-247,1,2.98421e-234,0,6.10255e+06,363
0.0026,1.53137e-245,1,6.70835e-233,0,6.10255e+06,363
0.00262,3.89757e-244,1,1.49953e-231,0,6.10255e+06,363
0.00264,9.86425e-243,1,3.33306e-230,0,6.10255e+06,363
0.00266,2.48246e-241,1,7.36663e-229,0,6.10255e+06,363
0.00268,6.2121e-240,1,1.61892e-227,0,6.10255e+06,363
0.0027,1.5457e-238,1,3.5376e-226,0,6.10255e+06,363
0.00272,3.82416e-237,1,7.68613e-225,0,6.10255e+06,363
0.00274,9.40716e-236,1,1.66041e-223,2.22045e-16,6.10255e+06,363
0.00276,2.30084e-234,1,3.56636e-222,0,6.10255e+06,363
0.00278,5.59512e-233,1,7.61604e-221,1.11022e-16,6.10255e+06,363
0.0028,1.35276e-231,1,1.61703e-219,0,6.10255e+06,363
0.00282,3.25168e-230,1,3.41341e-218,0,6.10255e+06,363
0.00284,7.77078e-229,1,7.16353e-217,0,6.10255e+06,363
0.00286,1.84621e-227,1,1.49461e-215,1.11022e-16,6.10255e+06,363
0.00288,4.36064e-226,1,3.10017e-214,2.22045e-16,6.10255e+06,363
0.0029,1.02391e-224,1,6.39278e-213,0,6.10255e+06,363
0.00292,2.39003e-223,1,1.31049e-211,0,6.10255e+06,363
0.00294,5.54586e-222,1,2.67058e-210,1.11022e-16,6.10255e+06,363
0.00296,1.27923e-220,1,5.41007e-209,1.11022e-16,6.10255e+06,363
0.00298,2.93314e-219,1,1.08947e-207,4.44089e-16,6.10255e+06,363
0.003,6.68517e-218,1,2.18087e-206,0,6.10255e+06,363
0.00302,1.51453e-216,1,4.33956e-205,3.33067e-16,6.10255e+06,363
0.00304,3.4105e-215,1,8.58323e-204,7.77156e-16,6.10255e+06,363
0.00306,7.63353e-214,1,1.68747e-202,9.99201e-16,6.10255e+06,363
0.00308,1.6982e-212,1,3.29758e-201,8.88178e-16,6.10255e+06,363
0.0031,3.75491e-211,1,6.40499e-200,6.66134e-16,6.10255e+06,363
0.00312,8.25176e-210,1,1.23651e-198,3.33067e-16,6.10255e+06,363
0.00314,1.80227e-208,1,2.37259e-197,3.33067e-16,6.10255e+06,363
0.00316,3.91212e-207,1,4.52467e-196,3.33067e-16,6.10255e+06,363
0.00318,8.43938e-206,1,8.57591e-195,5.55112e-16,6.10255e+06,363
0.0032,1.80928e-204,1,1.61545e-193,4.44089e-16,6.10255e+06,363
0.00322,3.85467e-203,1,3.02427e-192,6.66134e-16,6.10255e+06,363
0.00324,8.16105e-202,1,5.62664e-191,5.55112e-16,6.10255e+06,363
0.00326,1.717e-200,1,1.04033e-189,6.66134e-16,6.10255e+06,363
0.00328,3.58964e-199,1,1.91152e-188,5.55112e-16,6.10255e+06,363
0.0033,7.45721e-198,1,3.49028e-187,8.88178e-16,6.10255e+06,363
0.00332,1.53935e-196,1,6.33298e-186,0,6.10255e+06,363
0.00334,3.15735e-195,1,1.14186e-184,3.33067e-16,6.10255e+06,363
0.00336,6.43459e-194,1,2.04581e-183,4.44089e-16,6.10255e+06,363
0.00338,1.30293e-192,1,3.64214e-182,5.55112e-16,6.10255e+06,363
0.0034,2.6213e-191,1,6.44281e-181,5.55112e-16,6.10255e+06,363
0.00342,5.23953e-190,1,1.13243e-179,3.33067e-16,6.10255e+06,363
0.00344,1.04049e-188,1,1.97769e-178,3.33067e-16,6.10255e+06,363
0.00346,2.05279e-187,1,3.43166e-177,6.66134e-16,6.10255e+06,363
0.00348,4.02344e-186,1,5.91616e-176,5.55112e-16,6.10255e+06,363
0.0035,7.83411e-185,1,1.01334e-174,2.22045e-16,6.10255e+06,363
0.00352,1.51533e-183,1,1.7244e-173,0,6.10255e+06,363
0.00354,2.91166e-182,1,2.91527e-172,1.11022e-16,6.10255e+06,363
0.00356,5.55747e-181,1,4.89633e-171,6.66134e-16,6.10255e+06,363
0.00358,1.05367e-179,1,8.16958e-170,2.22045e-16,6.10255e+06,363
0.0036,1.98434e-178,1,1.35412e-168,0,6.10255e+06,363
0.00362,3.71189e-177,1,2.22963e-167,0,6.10255e+06,363
0.00364,6.89655e-176,1,3.64682e-166,3.33067e-16,6.10255e+06,363
0.00366,1.27267e-174,1,5.92505e-165,2.22045e-16,6.10255e+06,363
0.00368,2.33256e-173,1,9.56213e-164,3.33067e-16,6.10255e+06,363
0.0037,4.24592e-172,1,1.53282e-162,4.44089e-16,6.10255e+06,363
0.00372,7.67578e-171,1,2.44057e-161,4.44089e-16,6.10255e+06,363
0.00374,1.37807e-169,1,3.85962e-160,1.11022e-16,6.10255e+06,363
0.00376,2.45701e-168,1,6.06229e-159,3.33067e-16,6.10255e+06,363
0.00378,4.35027e-167,1,9.45712e-158,6.66134e-16,6.10255e+06,363
0.0038,7.6487e-166,1,1.4652e-156,5.55112e-16,6.10255e+06,363
0.00382,1.33539e-164,1,2.25447e-155,1.11022e-15,6.10255e+06,363
0.00384,2.31509e-163,1,3.44495e-154,1.11022e-15,6.10255e+06,363
0.00386,3.98522e-162,1,5.22762e-153,1.55431e-15,6.10255e+06,363
0.00388,6.81158e-161,1,7.87763e-152,1.22125e-15,6.10255e+06,363
0.0039,1.15596e-159,1,1.17881e-150,7.77156e-16,6.10255e+06,363
0.00392,1.94772e-158,1,1.75162e-149,3.33067e-16,6.10255e+06,363
0.00394,3.25825e-157,1,2.58444e-148,9.99201e-16,6.10255e+06,363
0.00396,5.41131e-156,1,3.7863e-147,1.44329e-15,6.10255e+06,363
0.00398,8.92214e-155,1,5.50769e-146,1.77636e-15,6.10255e+06,363
0.004,1.4604e-153,1,7.95462e-145,1.77636e-15,6.10255e+06,363
0.00402,2.37298e-152,1,1.14064e-143,1.77636e-15,6.10255e+06,363
0.00404,3.82761e-151,1,1.62386e-142,1.77636e-15,6.10255e+06,363
0.00406,6.12852e-150,1,2.2951e-141,1.22125e-15,6.10255e+06,363
0.00408,9.74014e-149,1,3.22029e-140,1.22125e-15,6.10255e+06,363
0.0041,1.53654e-147,1,4.48554e-139,7.77156e-16,6.10255e+06,363
0.00412,6.08579e-147,1,1.66948e-138,7.77156e-16,6.10255e+06,363
0.00414,3.73896e-145,1,8.51294e-137,1.11022e-15,6.10255e+06,363
0.00416,5.76703e-144,1,1.15983e-135,5.55112e-16,6.10255e+06,363
0.00418,8.82809e-143,1,1.56849e-134,1.11022e-16,6.10255e+06,363
0.0042,1.34116e-141,1,2.10534e-133,8.88178e-16,6.10255e+06,363
0.00422,2.02199e-140,1,2.8048e-132,9.99201e-16,6.10255e+06,363
0.00424,3.02517e-139,1,3.70858e-131,1.11022e-16,6.10255e+06,363
0.00426,4.49134e-138,1,4.86655e-130,0,6.10255e+06,363
0.00428,6.61674e-137,1,6.33766e-129,1.11022e-16,6.10255e+06,363
0.0043,9.67252e-136,1,8.19057e-128,8.88178e-16,6.10255e+06,363
0.00432,1.40297e-134,1,1.05042e-126,1.44329e-15,6.10255e+06,363
0.00434,2.01909e-133,1,1.33676e-125,9.99201e-16,6.10255e+06,363
0.00436,2.883e-132,1,1.68801e-124,8.88178e-16,6.10255e+06,363
0.00438,4.08415e-131,1,2.11499e-123,1.22125e-15,6.10255e+06,363
0.0044,5.74001e-130,1,2.62928e-122,5.55112e-16,6.10255e+06,363
0.00442,8.00316e-129,1,3.24297e-121,5.55112e-16,6.10255e+06,363
0.00444,1.10696e-127,1,3.96834e-120,3.33067e-16,6.10255e+06,363.001
0.00446,4.10449e-127,1,1.38403e-119,0,6.10255e+06,363.001
0.00448,2.06718e-125,1,5.80166e-118,1.44329e-15,6.10255e+06,363.001
0.0045,2.79077e-124,1,6.93094e-117,1.88738e-15,6.10255e+06,363.001
0.00452,3.73705e-123,1,8.21335e-116,1.9984e-15,6.10255e+06,363.001
0.00454,4.96337e-122,1,9.65423e-115,2.10942e-15,6.10255e+06,363.001
0.00456,6.53812e-121,1,1.12555e-113,1.9984e-15,6.10255e+06,363.001
0.00458,8.54163e-120,1,1.3015e-112,1.55431e-15,6.10255e+06,363.001
0.0046,1.10668e-118,1,1.49257e-111,1.33227e-15,6.10255e+06,363.001
0.00462,1.42195e-117,1,1.69752e-110,1.22125e-15,6.10255e+06,363.001
0.00464,1.81179e-116,1,1.91455e-109,1.22125e-15,6.10255e+06,363.001
0.00466,2.28917e-115,1,2.14127e-108,1.33227e-15,6.10255e+06,363.001
0.00468,2.86797e-114,1,2.37468e-107,1.22125e-15,6.10255e+06,363.001
0.0047,3.56273e-113,1,2.61126e-106,9.99201e-16,6.10255e+06,363.001
0.00472,4.3882e-112,1,2.84696e-105,7.77156e-16,6.10255e+06,363.001
0.00474,5.35878e-111,1,3.07738e-104,1.22125e-15,6.10255e+06,363.001
0.00476,6.48792e-110,1,3.29781e-103,1.33227e-15,6.10255e+06,363.001
0.00478,7.7873e-109,1,3.50342e-102,1.33227e-15,6.10255e+06,363.001
0.0048,9.26599e-108,1,3.68943e-101,1.55431e-15,6.10255e+06,363.001
0.00482,1.09296e-106,1,3.85128e-100,7.77156e-16,6.10255e+06,363.001
0.00484,1.27792e-105,1,3.98479e-99,0,6.10255e+06,363.001
0.00486,1.48106e-104,1,4.08637e-98,1.11022e-15,6.10255e+06,363.001
0.00488,1.70135e-103,1,4.15316e-97,1.11022e-15,6.10255e+06,363.001
0.0049,1.93708e-102,1,4.18314e-96,2.10942e-15,6.10255e+06,363.001
0.00492,2.18583e-101,1,4.1753e-95,1.55431e-15,6.10255e+06,363.001
0.00494,2.44445e-100,1,4.1296e-94,1.44329e-15,6.10255e+06,363.001
0.00496,2.70907e-99,1,4.04706e-93,1.88738e-15,6.10255e+06,363.001
0.00498,2.97522e-98,1,3.92968e-92,5.55112e-16,6.10255e+06,363.001
0.005,3.23783e-97,1,3.78037e-91,7.77156e-16,6.10255e+06,363.001
0.00502,3.49147e-96,1,3.60285e-90,1.44329e-15,6.10255e+06,363.001
0.00504,3.73045e-95,1,3.40148e-89,1.9984e-15,6.10255e+06,363.001
0.00506,3.94905e-94,1,3.18106e-88,1.11022e-15,6.10255e+06,363.001
0.00508,4.14174e-93,1,2.94666e-87,5.55112e-16,6.10255e+06,363.001
0.0051,4.3034e-92,1,2.70345e-86,4.44089e-16,6.10255e+06,363.001
0.00512,1.38228e-91,1,8.15904e-86,4.44089e-16,6.10255e+06,363.001
0.00514,4.5165e-90,1,2.2104e-84,4.44089e-16,6.10255e+06,363.001
0.00516,4.56166e-89,1,1.9696e-83,3.33067e-16,6.10255e+06,363.001
0.00518,4.56351e-88,1,1.73782e-82,0,6.10255e+06,363.001
0.0052,4.52179e-87,1,1.51817e-81,4.44089e-16,6.10255e+06,363.001
0.00522,4.43745e-86,1,1.31309e-80,1.22125e-15,6.10255e+06,363.001
0.00524,4.31269e-85,1,1.12435e-79,0,6.10255e+06,363.001
0.00526,4.15081e-84,1,9.5303e-79,2.22045e-16,6.10255e+06,363.001
0.00528,3.95608e-83,1,7.9962e-78,2.22045e-16,6.10255e+06,363.001
0.0053,3.73355e-82,1,6.64051e-77,8.88178e-16,6.10255e+06,363.001
0.00532,3.48885e-81,1,5.45794e-76,7.77156e-16,6.10255e+06,363.001
0.00534,3.22792e-80,1,4.43951e-75,5.55112e-16,6.10255e+06,363.001
0.00536,2.95679e-79,1,3.57346e-74,7.77156e-16,6.10255e+06,363.001
0.00538,2.68134e-78,1,2.84615e-73,0,6.10255e+06,363.001
0.0054,2.4071e-77,1,2.2429e-72,2.22045e-16,6.10255e+06,363.001
0.00542,2.13906e-76,1,1.74869e-71,0,6.10255e+06,363.001
0.00544,1.88155e-75,1,1.34875e-70,0,6.10255e+06,363.001
0.00546,1.63813e-74,1,1.02905e-69,4.44089e-16,6.10255e+06,363.001
0.00548,1.41155e-73,1,7.76593e-69,7.77156e-16,6.10255e+06,363.001
0.0055,1.20375e-72,1,5.7965e-68,1.11022e-16,6.10255e+06,363.001
0.00552,1.01587e-71,1,4.27878e-67,3.33067e-16,6.10255e+06,363.001
0.00554,8.48369e-71,1,3.12336e-66,3.33067e-16,6.10255e+06,363.001
0.00556,7.01044e-70,1,2.25443e-65,5.55112e-16,6.10255e+06,363.001
0.00558,5.73187e-69,1,1.60889e-64,6.66134e-16,6.10255e+06,363.001
0.0056,4.63672e-68,1,1.13516e-63,8.88178e-16,6.10255e+06,363.001
0.00562,3.71077e-67,1,7.9176e-63,9.99201e-16,6.10255e+06,363.001
0.00564,2.93785e-66,1,5.45878e-62,5.55112e-16,6.10255e+06,363.001
0.00566,2.30081e-65,1,3.71987e-61,0,6.10255e+06,363.001
0.00568,1.78233e-64,1,2.50525e-60,0,6.10255e+06,363.002
0.0057,1.36562e-63,1,1.66736e-59,0,6.10255e+06,363.002
0.00572,1.03484e-62,1,1.09654e-58,0,6.10255e+06,363.002
0.00574,7.75521e-62,1,7.12518e-58,0,6.10255e+06,363.002
0.00576,5.74728e-61,1,4.5741e-57,0,6.10255e+06,363.002
0.00578,4.21163e-60,1,2.90077e-56,0,6.10255e+06,363.002
0.0058,3.05162e-59,1,1.8171e-55,0,6.10255e+06,363.002
0.00582,2.18611e-58,1,1.12426e-54,2.22045e-16,6.10255e+06,363.002
0.00584,1.54827e-57,1,6.86957e-54,8.88178e-16,6.10255e+06,363.002
0.00586,1.08399e-56,1,4.14507e-53,1.55431e-15,6.10255e+06,363.002
0.00588,7.50198e-56,1,2.46963e-52,1.33227e-15,6.10255e+06,363.002
0.0059,5.13181e-55,1,1.45274e-51,4.44089e-16,6.10255e+06,363.002
0.00592,3.46959e-54,1,8.43645e-51,7.77156e-16,6.10255e+06,363.002
0.00594,2.31829e-53,1,4.83623e-50,6.66134e-16,6.10255e+06,363.002
0.00596,1.53076e-52,1,2.73647e-49,9.99201e-16,6.10255e+06,363.002
0.00598,9.98768e-52,1,1.52816e-48,1.11022e-15,6.10255e+06,363.002
0.006,6.43887e-51,1,8.42172e-48,9.99201e-16,6.10255e+06,363.002
0.00602,4.10118e-50,1,4.57984e-47,1.55431e-15,6.10255e+06,363.002
0.00604,2.58065e-49,1,2.45742e-46,1.22125e-15,6.10255e+06,363.002
0.00606,1.60412e-48,1,1.30092e-45,9.99201e-16,6.10255e+06,363.002
0.00608,9.8492e-48,1,6.79402e-45,1.88738e-15,6.10255e+06,363.002
0.0061,5.9729e-47,1,3.50009e-44,1.88738e-15,6.10255e+06,363.002
0.00612,3.5773e-46,1,1.77858e-43,1.44329e-15,6.10255e+06,363.003
0.00614,2.11581e-45,1,8.91426e-43,1.88738e-15,6.10255e+06,363.003
0.00616,1.2357e-44,1,4.40645e-42,1.33227e-15,6.10255e+06,363.003
0.00618,7.12576e-44,1,2.14816e-41,3.33067e-16,6.10255e+06,363.003
0.0062,4.05688e-43,1,1.03277e-40,3.33067e-16,6.10255e+06,363.003
0.00622,2.28013e-42,1,4.8966e-40,8.88178e-16,6.10255e+06,363.003
0.00624,1.26502e-41,1,2.2895e-39,1.11022e-15,6.10255e+06,363.003
0.00626,6.92737e-41,1,1.05573e-38,1.11022e-16,6.10255e+06,363.003
0.00628,3.74397e-40,1,4.80125e-38,4.44089e-16,6.10255e+06,363.003
0.0063,1.99688e-39,1,2.15368e-37,7.77156e-16,6.10255e+06,363.003
0.00632,1.05096e-38,1,9.52986e-37,8.88178e-16,6.10255e+06,363.003
0.00634,5.45754e-38,1,4.16045e-36,1.88738e-15,6.10255e+06,363.003
0.00636,2.79604e-37,1,1.7924e-35,1.66533e-15,6.10255e+06,363.003
0.00638,1.41314e-36,1,7.62228e-35,2.22045e-15,6.10255e+06,363.004
0.0064,7.04496e-36,1,3.20062e-34,1.66533e-15,6.10255e+06,363.004
0.00642,3.46404e-35,1,1.32755e-33,1.55431e-15,6.10255e+06,363.004
0.00644,1.67979e-34,1,5.44175e-33,1.11022e-15,6.10255e+06,363.004
0.00646,8.03253e-34,1,2.2056e-32,1.22125e-15,6.10255e+06,363.004
0.00648,3.7873e-33,1,8.84446e-32,1.88738e-15,6.10255e+06,363.004
0.0065,1.76052e-32,1,3.51122e-31,9.99201e-16,6.10255e+06,363.004
0.00652,8.06759e-32,1,1.38098e-30,1.55431e-15,6.10255e+06,363.004
0.00654,3.6441e-31,1,5.38473e-30,3.33067e-16,6.10255e+06,363.005
0.00656,1.62231e-30,1,2.08301e-29,1.11022e-16,6.10255e+06,363.005
0.00658,7.11749e-30,1,7.99927e-29,1.22125e-15,6.10255e+06,363.005
0.0066,3.07697e-29,1,3.05126e-28,1.9984e-15,6.10255e+06,363.005
0.00662,1.31061e-28,1,1.15654e-27,1.33227e-15,6.10255e+06,363.005
0.00664,5.4996e-28,1,4.35724e-27,1.22125e-15,6.10255e+06,363.005
0.00666,2.27324e-27,1,1.63178e-26,1.22125e-15,6.10255e+06,363.006
0.00668,9.25481e-27,1,6.07379e-26,6.66134e-16,6.10255e+06,363.006
0.0067,3.71062e-26,1,2.24632e-25,6.66134e-16,6.10255e+06,363.006
0.00672,1.46497e-25,1,8.25065e-25,0,6.10255e+06,363.006
0.00674,5.69462e-25,1,3.00774e-24,2.22045e-16,6.10255e+06,363.006
0.00676,2.17919e-24,1,1.08746e-23,0,6.10255e+06,363.007
0.00678,8.20852e-24,1,3.8964e-23,0,6.10255e+06,363.007
0.0068,3.04308e-23,1,1.38241e-22,5.55112e-16,6.10255e+06,363.007
0.00682,1.11014e-22,1,4.85258e-22,1.22125e-15,6.10255e+06,363.007
0.00684,3.9847e-22,1,1.68396e-21,1.88738e-15,6.10255e+06,363.008
0.00686,1.40703e-21,1,5.77277e-21,1.44329e-15,6.10255e+06,363.008
0.00688,4.88699e-21,1,1.95359e-20,1.55431e-15,6.10255e+06,363.008
0.0069,1.66938e-20,1,6.52249e-20,6.66134e-16,6.10255e+06,363.008
0.00692,5.60796e-20,1,2.14733e-19,2.22045e-15,6.10255e+06,363.009
0.00694,1.85252e-19,1,6.96787e-19,2.33147e-15,6.10255e+06,363.009
0.00696,6.0176e-19,1,2.22782e-18,2.10942e-15,6.10255e+06,363.009
0.00698,1.92252e-18,1,7.01805e-18,5.55112e-16,6.10255e+06,363.01
0.007,6.03908e-18,1,2.17711e-17,4.44089e-16,6.10255e+06,363.01
0.00702,1.86765e-17,1,6.65842e-17,5.55112e-16,6.10255e+06,363.011
0.00704,5.69397e-17,1,2.01024e-16,6.66134e-16,6.10255e+06,363.011
0.00706,1.73114e-16,1,6.06039e-16,2.66454e-15,6.10255e+06,363.011
0.00708,5.46728e-16,1,1.90176e-15,1.44329e-14,6.10255e+06,363.012
0.0071,1.83448e-15,1,6.35901e-15,5.73985e-14,6.10255e+06,363.012
0.00712,6.49013e-15,1,2.24932e-14,2.07723e-13,6.10255e+06,363.013
0.00714,2.32192e-14,1,8.06429e-14,7.22311e-13,6.10255e+06,363.014
0.00716,8.17615e-14,1,2.84907e-13,2.44094e-12,6.10255e+06,363.015
0.00718,2.80686e-13,1,9.8191e-13,8.03657e-12,6.10255e+06,363.016
0.0072,9.3683e-13,1,3.29125e-12,2.57351e-11,6.10255e+06,363.018
0.00722,3.0372e-12,1,1.07183e-11,8.01528e-11,6.10255e+06,363.021
0.00724,9.56211e-12,1,3.39032e-11,2.42749e-10,6.10255e+06,363.025
0.00726,2.9233e-11,1,1.04151e-10,7.14864e-10,6.10255e+06,363.033
0.00728,8.67782e-11,1,3.10711e-10,2.04685e-09,6.10255e+06,363.045
0.0073,2.50117e-10,1,9.00108e-10,5.69794e-09,6.10255e+06,363.065
0.00732,6.99919e-10,1,2.53189e-09,1.54202e-08,6.10255e+06,363.098
0.00734,1.90151e-09,1,6.91476e-09,4.05667e-08,6.10255e+06,363.15
0.00736,5.0149e-09,1,1.83338e-08,1.03734e-07,6.10255e+06,363.234
0.00738,1.2838e-08,1,4.71875e-08,2.57809e-07,6.10255e+06,363.367
0.0074,3.18965e-08,0.999999,1.1788e-07,6.22652e-07,6.10255e+06,363.572
0.00742,7.68994e-08,0.999998,2.85774e-07,1.46114e-06,6.10255e+06,363.885
0.00744,1.79858e-07,0.999996,6.72154e-07,3.33072e-06,6.10255e+06,364.356
0.00746,4.07961e-07,0.999991,1.53338e-06,7.37328e-06,6.10255e+06,365.052
0.00748,8.97017e-07,0.99998,3.39153e-06,1.58452e-05,6.10255e+06,366.065
0.0075,1.91089e-06,0.999958,7.26931e-06,3.304e-05,6.10255e+06,367.509
0.00752,3.94119e-06,0.999914,1.50897e-05,6.68102e-05,6.10255e+06,369.532
0.00754,7.86385e-06,0.999831,3.03152e-05,0.000130923,6.10255e+06,372.303
0.00756,1.51666e-05,0.999677,5.88986e-05,0.000248456,6.10255e+06,376.019
0.00758,2.82498e-05,0.999405,0.000110585,0.000456288,6.10255e+06,380.882
0.0076,5.07813e-05,0.998938,0.000200526,0.000810448,6.10255e+06,387.09
0.00762,8.80548e-05,0.998169,0.000351043,0.00139172,6.10255e+06,394.812
0.00764,0.000147277,0.996949,0.000593285,0.00231053,6.10255e+06,404.171
0.00766,0.00023771,0.995084,0.000968458,0.00371015,6.10255e+06,415.23
0.00768,0.000370622,0.992333,0.00152839,0.00576754,6.10255e+06,427.987
0.0077,0.000559064,0.988414,0.00233542,0.00869187,6.10255e+06,442.391
0.00772,0.000817551,0.982999,0.0034617,0.0127214,6.10255e+06,458.347
0.00774,0.00116173,0.97573,0.00498838,0.01812,6.10255e+06,475.744
0.00776,0.00160816,0.966213,0.00700475,0.0251737,6.10255e+06,494.462
0.00778,0.00217417,0.95403,0.00960774,0.0341884,6.10255e+06,514.385
0.0078,0.00287782,0.938732,0.0129015,0.0454883,6.10255e+06,535.405
0.00782,0.00373794,0.919852,0.0169969,0.0594131,6.10255e+06,557.413
0.00784,0.004774,0.896902,0.0220102,0.0763141,6.10255e+06,580.289
0.00786,0.00536417,0.883746,0.0248983,0.0859912,6.10255e+06,592.01
0.00788,0.00745211,0.836843,0.035264,0.120441,6.10255e+06,628.038
0.0079,0.00826129,0.818547,0.0393318,0.133859,6.10255e+06,640.242
0.00792,0.0110525,0.75509,0.0535246,0.180332,6.10255e+06,676.923
0.00794,0.0132234,0.705472,0.0646955,0.216609,6.10255e+06,700.965
0.00796,0.0156354,0.650169,0.0772045,0.256991,6.10255e+06,724.165
0.00798,0.0182642,0.589757,0.0909234,0.301056,6.10255e+06,746.052
0.008,0.021065,0.52529,0.105607,0.348038,6.10255e+06,766.182
0.00802,0.0239708,0.458339,0.120886,0.396804,6.10255e+06,784.21
0.00804,0.0268954,0.390923,0.13628,0.445901,6.10255e+06,799.951
0.00806,0.0297411,0.325332,0.151244,0.493683,6.10255e+06,813.411
0.00808,0.0324109,0.263835,0.165237,0.538517,6.10255e+06,824.775
0.0081,0.034823,0.20836,0.177806,0.579011,6.10255e+06,834.356
0.00812,0.0369215,0.160231,0.188643,0.614204,6.10255e+06,842.515
0.00814,0.0386821,0.120037,0.197622,0.643659,6.10255e+06,849.586
0.00816,0.0401099,0.0876687,0.20478,0.667441,6.10255e+06,855.836
0.00818,0.0412326,0.0624788,0.210283,0.686006,6.10255e+06,861.447
0.0082,0.0416921,0.0522771,0.212486,0.693545,6.10255e+06,864.05
0.00822,0.0427329,0.0295892,0.217302,0.710376,6.10255e+06,871.141
0.00824,0.0429864,0.0242047,0.218418,0.714391,6.10255e+06,873.279
0.00826,0.0435403,0.0128267,0.220708,0.722925,6.10255e+06,879.044
0.00828,0.0437806,0.00818,0.221593,0.726446,6.10255e+06,882.361
0.0083,0.0439502,0.00510905,0.222143,0.728798,6.10255e+06,885.275
0.00832,0.0440696,0.00312596,0.222466,0.730339,6.10255e+06,887.806
0.00834,0.0441539,0.00187417,0.222642,0.73133,6.10255e+06,889.982
0.00836,0.044214,0.00110192,0.222726,0.731958,6.10255e+06,891.832
0.00838,0.0442562,0.000653916,0.222754,0.732336,6.10255e+06,893.364
0.0084,0.0442879,0.000379607,0.222755,0.732578,6.10255e+06,894.649
0.00842,0.0443124,0.000209418,0.222742,0.732736,6.10255e+06,895.734
0.00844,0.0443311,0.000113123,0.222723,0.732833,6.10255e+06,896.625
0.00846,0.0443456,5.98379e-05,0.222701,0.732893,6.10255e+06,897.349
0.00848,0.044357,3.09927e-05,0.222681,0.732931,6.10255e+06,897.933
0.0085,0.044366,1.57171e-05,0.222664,0.732954,6.10255e+06,898.4
0.00852,0.0443732,7.80342e-06,0.22265,0.732969,6.10255e+06,898.77
0.00854,0.0443762,5.45488e-06,0.222643,0.732975,6.10255e+06,898.925
0.00856,0.0443835,1.80479e-06,0.222628,0.732986,6.10255e+06,899.289
0.00858,0.0443855,1.23504e-06,0.222625,0.732989,6.10255e+06,899.383
0.0086,0.0443901,3.83294e-07,0.222616,0.732994,6.10255e+06,899.601
0.00862,0.0443924,1.71065e-07,0.222611,0.732996,6.10255e+06,899.704
0.00864,0.0443942,7.47303e-08,0.222608,0.732997,6.10255e+06,899.782
0.00866,0.0443956,3.19543e-08,0.222606,0.732998,6.10255e+06,899.841
0.00868,0.0443966,1.33739e-08,0.222604,0.732999,6.10255e+06,899.885
0.0087,0.0443975,5.47871e-09,0.222603,0.732999,6.10255e+06,899.917
0.00872,0.0443981,2.19684e-09,0.222602,0.733,6.10255e+06,899.941
0.00874,0.0443986,8.6225e-10,0.222602,0.733,6.10255e+06,899.958
0.00876,0.044399,3.31295e-10,0.222601,0.733,6.10255e+06,899.97
0.00878,0.0443992,1.24627e-10,0.222601,0.733,6.10255e+06,899.979
0.0088,0.0443995,4.60175e-11,0.2226,0.733,6.10255e+06,899.986
0.00882,0.0443996,1.92128e-11,0.2226,0.733,6.10255e+06,899.99
0.00884,0.0443997,6.77173e-12,0.2226,0.733,6.10255e+06,899.993
0.00886,0.0443998,2.34735e-12,0.2226,0.733,6.10255e+06,899.995
0.00888,0.0443998,1.37123e-12,0.2226,0.733,6.10255e+06,899.996
0.0089,0.0443999,2.64836e-13,0.2226,0.733,6.10255e+06,899.998
0.00892,0.0443999,1.51501e-13,0.2226,0.733,6.10255e+06,899.998
0.00894,0.0443999,2.75616e-14,0.2226,0.733,6.10255e+06,899.999
0.00896,0.0444,8.69958e-15,0.2226,0.733,6.10255e+06,899.999
0.00898,0.0444,2.75708e-15,0.2226,0.733,6.10255e+06,900
0.009,0.0444,9.03218e-16,0.2226,0.733,6.10255e+06,900
0.00902,0.0444,3.10945e-16,0.2226,0.733,6.10255e+06,900
0.00904,0.0444,1.10664e-16,0.2226,0.733,6.10255e+06,900
0.00906,0.0444,3.97734e-17,0.2226,0.733,6.10255e+06,900
0.00908,0.0444,1.42401e-17,0.2226,0.733,6.10255e+06,900
0.0091,0.0444,5.04857e-18,0.2226,0.733,6.10255e+06,900
0.00912,0.0444,1.76831e-18,0.2226,0.733,6.10255e+06,900
0.00914,0.0444,6.11421e-19,0.2226,0.733,6.10255e+06,900
0.00916,0.0444,2.08653e-19,0.2226,0.733,6.10255e+06,900
0.00918,0.0444,7.02792e-20,0.2226,0.733,6.10255e+06,900
0.0092,0.0444,2.33658e-20,0.2226,0.733,6.10255e+06,900
0.00922,0.0444,1.34078e-20,0.2226,0.733,6.10255e+06,900
0.00924,0.0444,2.48528e-21,0.2226,0.733,6.10255e+06,900
0.00926,0.0444,7.95285e-22,0.2226,0.733,6.10255e+06,900
0.00928,0.0444,2.51324e-22,0.2226,0.733,6.10255e+06,900
0.0093,0.0444,7.84428e-23,0.2226,0.733,6.10255e+06,900
0.00932,0.0444,2.41834e-23,0.2226,0.733,6.10255e+06,900
0.00934,0.0444,7.3648e-24,0.2226,0.733,6.10255e+06,900
0.00936,0.0444,2.21572e-24,0.2226,0.733,6.10255e+06,900
0.00938,0.0444,6.58583e-25,0.2226,0.733,6.10255e+06,900
0.0094,0.0444,1.93407e-25,0.2226,0.733,6.10255e+06,900
0.00942,0.0444,5.61209e-26,0.2226,0.733,6.10255e+06,900
0.00944,0.0444,1.60914e-26,0.2226,0.733,6.10255e+06,900
0.00946,0.0444,4.55931e-27,0.2226,0.733,6.10255e+06,900
0.00948,0.0444,1.27664e-27,0.2226,0.733,6.10255e+06,900
0.0095,0.0444,3.53279e-28,0.2226,0.733,6.10255e+06,900
0.00952,0.0444,9.66216e-29,0.2226,0.733,6.10255e+06,900
0.00954,0.0444,2.61191e-29,0.2226,0.733,6.10255e+06,900
0.00956,0.0444,1.35209e-29,0.2226,0.733,6.10255e+06,900
0.00958,0.0444,1.84332e-30,0.2226,0.733,6.10255e+06,900
0.0096,0.0444,4.81287e-31,0.2226,0.733,6.10255e+06,900
0.00962,0.0444,1.24231e-31,0.2226,0.733,6.10255e+06,900
0.00964,0.0444,3.1703e-32,0.2226,0.733,6.10255e+06,900
0.00966,0.0444,7.99913e-33,0.2226,0.733,6.10255e+06,900
0.00968,0.0444,1.99564e-33,0.2226,0.733,6.10255e+06,900
0.0097,0.0444,4.92315e-34,0.2226,0.733,6.10255e+06,900
0.00972,0.0444,1.20103e-34,0.2226,0.733,6.10255e+06,900