x,NH3,C7H16,O2,N2,p,T
0,1.67982e-322,1,0,0,6.10255e+06,363
2e-05,0,1,0,2.22045e-16,6.10255e+06,363
4e-05,1.63042e-322,1,1.4822e-322,3.33067e-16,6.10255e+06,363
6e-05,1.58101e-322,1,1.33398e-322,4.44089e-16,6.10255e+06,363
8e-05,3.45846e-323,1,0,6.66134e-16,6.10255e+06,363
0.0001,0,1,1.72923e-322,8.88178e-16,6.10255e+06,363
0.00012,0,1,0,8.88178e-16,6.10255e+06,363
0.00014,0,1,0,0,6.10255e+06,363
0.00016,0,1,1.58101e-322,1.11022e-16,6.10255e+06,363
0.00018,0,1,0,2.22045e-16,6.10255e+06,363
0.0002,1.97626e-323,1,0,2.22045e-16,6.10255e+06,363
0.00022,2.47033e-323,1,0,3.33067e-16,6.10255e+06,363
0.00024,0,1,1.5316e-322,2.22045e-16,6.10255e+06,363
0.00026,1.38338e-322,1,0,1.11022e-16,6.10255e+06,363
0.00028,3.95253e-323,1,1.33398e-322,0,6.10255e+06,363
0.0003,1.28457e-322,1,0,0,6.10255e+06,363
0.00032,1.43279e-322,1,0,0,6.10255e+06,363
0.00034,2.47033e-323,1,0,7.77156e-16,6.10255e+06,363
0.00036,1.33398e-322,1,0,5.55112e-16,6.10255e+06,363
0.00038,1.97626e-323,1,0,0,6.10255e+06,363
0.0004,1.67982e-322,1,0,0,6.10255e+06,363
0.00042,0,1,1.23516e-322,1.11022e-16,6.10255e+06,363
0.00044,0,1,0,1.44329e-15,6.10255e+06,363
0.00046,0,1,1.43279e-322,1.22125e-15,6.10255e+06,363
0.00048,0,1,1.58101e-322,1.22125e-15,6.10255e+06,363
0.0005,0,1,0,1.55431e-15,6.10255e+06,363
0.00052,1.38338e-322,1,0,1.77636e-15,6.10255e+06,363
0.00054,0,1,0,1.44329e-15,6.10255e+06,363
0.00056,1.38338e-322,1,1.38338e-322,2.10942e-15,6.10255e+06,363
0.00058,0,1,0,1.88738e-15,6.10255e+06,363
0.0006,0,1,1.33398e-322,1.22125e-15,6.10255e+06,363
0.00062,0,1,3.70549e-322,1.22125e-15,6.10255e+06,363
0.00064,0,1,6.42285e-322,9.99201e-16,6.10255e+06,363
0.00066,0,1,3.31024e-322,1.11022e-15,6.10255e+06,363
0.00068,1.58101e-322,1,6.62048e-322,1.22125e-15,6.10255e+06,363
0.0007,2.47033e-323,1,3.50787e-322,8.88178e-16,6.10255e+06,363
0.00072,0,1,6.66989e-322,1.55431e-15,6.10255e+06,363
0.00074,0,1,4.5454e-322,1.55431e-15,6.10255e+06,363
0.00076,0,1,6.52167e-322,1.11022e-15,6.10255e+06,363
0.00078,0,1,8.54734e-322,1.11022e-15,6.10255e+06,363
0.0008,0,1,1.16599e-321,1.11022e-15,6.10255e+06,363
0.00082,0,1,1.15117e-321,8.88178e-16,6.10255e+06,363
0.00084,0,1,1.13141e-321,1.22125e-15,6.10255e+06,363
0.00086,0,1,1.35868e-321,1.44329e-15,6.10255e+06,363
0.00088,2.47033e-323,1,1.13141e-321,1.11022e-15,6.10255e+06,363
0.0009,0,1,1.36856e-321,1.22125e-15,6.10255e+06,363
0.00092,0,1,1.99603e-321,1.22125e-15,6.10255e+06,363
0.00094,0,1,2.50491e-321,1.33227e-15,6.10255e+06,363
0.00096,0,1,2.54444e-321,1.22125e-15,6.10255e+06,363
0.00098,0,1,2.49009e-321,9.99201e-16,6.10255e+06,363
0.001,0,1,2.50985e-321,1.11022e-15,6.10255e+06,363
0.00102,0,1,2.55926e-321,9.99201e-16,6.10255e+06,363
0.00104,0,1,2.53456e-321,1.44329e-15,6.10255e+06,363
0.00106,0,1,2.56914e-321,1.22125e-15,6.10255e+06,363
0.00108,9.88131e-324,1,2.65313e-321,8.88178e-16,6.10255e+06,363
0.0011,1.23516e-322,1,2.66301e-321,9.99201e-16,6.10255e+06,363
0.00112,1.28457e-322,1,3.07309e-321,3.33067e-16,6.10255e+06,363
0.00114,0,1,3.16696e-321,8.88178e-16,6.10255e+06,363
0.00116,1.63042e-322,1,3.16696e-321,7.77156e-16,6.10255e+06,363
0.00118,0,1,3.19166e-321,7.77156e-16,6.10255e+06,363
0.0012,0,1,3.23613e-321,4.44089e-16,6.10255e+06,363
0.00122,1.38338e-322,1,3.13732e-321,5.55112e-16,6.10255e+06,363
0.00124,0,1,3.24601e-321,4.44089e-16,6.10255e+06,363
0.00126,0,1,3.17684e-321,9.99201e-16,6.10255e+06,363
0.00128,1.5316e-322,1,3.13732e-321,7.77156e-16,6.10255e+06,363
0.0013,0,1,3.24107e-321,9.99201e-16,6.10255e+06,363
0.00132,0,1,3.11261e-321,5.55112e-16,6.10255e+06,363
0.00134,0,1,3.21143e-321,5.55112e-16,6.10255e+06,363
0.00136,0,1,3.11755e-321,5.55112e-16,6.10255e+06,363
0.00138,0,1,3.23119e-321,9.99201e-16,6.10255e+06,363
0.0014,0,1,3.32506e-321,2.22045e-16,6.10255e+06,363
0.00142,0,1,3.10767e-321,2.22045e-16,6.10255e+06,363
0.00144,0,1,3.1966e-321,3.33067e-16,6.10255e+06,363
0.00146,0,1,3.17684e-321,3.33067e-16,6.10255e+06,363
0.00148,1.4822e-322,1,3.21637e-321,8.88178e-16,6.10255e+06,363
0.0015,1.63042e-322,1,3.19166e-321,3.33067e-16,6.10255e+06,363
0.00152,1.4822e-322,1,3.21143e-321,2.22045e-16,6.10255e+06,363
0.00154,0,1,3.34977e-321,1.11022e-16,6.10255e+06,363
0.00156,0,1,3.22625e-321,2.22045e-16,6.10255e+06,363
0.00158,0,1,3.25095e-321,0,6.10255e+06,363
0.0016,1.17094e-321,1,5.36061e-321,4.44089e-16,6.10255e+06,363
0.00162,1.54939e-320,1,6.4609e-320,5.55112e-16,6.10255e+06,363
0.00164,5.09149e-319,1,2.09626e-318,3.33067e-16,6.10255e+06,363
0.00166,1.78187e-317,1,7.15537e-317,1.11022e-16,6.10255e+06,363
0.00168,6.2141e-316,1,2.43344e-315,2.22045e-16,6.10255e+06,363
0.0017,2.15578e-314,1,8.23193e-314,3.33067e-16,6.10255e+06,363
0.00172,7.43941e-313,1,2.76978e-312,0,6.10255e+06,363
0.00174,2.55372e-311,1,9.26923e-311,2.22045e-16,6.10255e+06,363
0.00176,8.71974e-310,1,3.08526e-309,0,6.10255e+06,363
0.00178,2.96157e-308,1,1.02137e-307,1.11022e-16,6.10255e+06,363
0.0018,1.00051e-306,1,3.36291e-306,0,6.10255e+06,363
0.00182,3.36201e-305,1,1.10122e-304,0,6.10255e+06,363
0.00184,1.12369e-303,1,3.58642e-303,1.11022e-16,6.10255e+06,363
0.00186,3.73556e-302,1,1.16162e-301,6.66134e-16,6.10255e+06,363
0.00188,1.23516e-300,1,3.74182e-300,6.66134e-16,6.10255e+06,363
0.0019,4.06202e-299,1,1.19869e-298,7.77156e-16,6.10255e+06,363
0.00192,1.32863e-297,1,3.81881e-297,2.22045e-16,6.10255e+06,363
0.00194,4.3222e-296,1,1.20988e-295,1.11022e-16,6.10255e+06,363
0.00196,1.39842e-294,1,3.81195e-294,6.66134e-16,6.10255e+06,363
0.00198,4.49981e-293,1,1.19435e-292,2.22045e-16,6.10255e+06,363
0.002,1.44003e-291,1,3.72125e-291,0,6.10255e+06,363
0.00202,4.58308e-290,1,1.15296e-289,0,6.10255e+06,363
0.00204,1.45061e-288,1,3.55225e-288,0,6.10255e+06,363
0.00206,8.14416e-288,1,1.96757e-287,0,6.10255e+06,363
0.00208,1.4293e-285,1,3.31542e-285,2.22045e-16,6.10255e+06,363
0.0021,4.44931e-284,1,1.00432e-283,2.22045e-16,6.10255e+06,363
0.00212,1.37733e-282,1,3.02513e-282,4.44089e-16,6.10255e+06,363
0.00214,4.23991e-281,1,9.06036e-281,2.22045e-16,6.10255e+06,363
0.00216,1.2979e-279,1,2.69817e-279,1.11022e-16,6.10255e+06,363
0.00218,3.95075e-278,1,7.98935e-278,0,6.10255e+06,363
0.0022,1.19583e-276,1,2.35214e-276,0,6.10255e+06,363
0.00222,3.5992e-275,1,6.88526e-275,4.44089e-16,6.10255e+06,363
0.00224,1.07716e-273,1,2.0039e-273,4.44089e-16,6.10255e+06,363
0.00226,3.20538e-272,1,5.79859e-272,4.44089e-16,6.10255e+06,363
0.00228,9.48428e-271,1,1.66823e-270,3.33067e-16,6.10255e+06,363
0.0023,2.79026e-269,1,4.77163e-269,0,6.10255e+06,363
0.00232,8.16194e-268,1,1.35691e-267,0,6.10255e+06,363
0.00234,2.37379e-266,1,3.83622e-266,0,6.10255e+06,363
0.00236,6.86415e-265,1,1.07824e-264,0,6.10255e+06,363
0.00238,1.97341e-263,1,3.01288e-263,0,6.10255e+06,363
0.0024,5.64062e-262,1,8.36945e-262,0,6.10255e+06,363
0.00242,1.60291e-260,1,2.31129e-260,0,6.10255e+06,363
0.00244,4.5285e-259,1,6.34523e-259,0,6.10255e+06,363
0.00246,1.27191e-257,1,1.73169e-257,0,6.10255e+06,363
0.00248,3.55148e-256,1,4.69807e-256,0,6.10255e+06,363
0.0025,9.85836e-255,1,1.26703e-254,0,6.10255e+06,363
0.00252,2.7204e-253,1,3.39675e-253,0,6.10255e+06,363
0.00254,7.46258e-252,1,9.05211e-252,1.11022e-16,6.10255e+06,363
0.00256,2.035e-250,1,2.39793e-250,3.33067e-16,6.10255e+06,363
0.00258,5.51633e-249,1,6.3142e-249,3.33067e-16,6.10255e+06,363
0.0026,1.48641e-247,1,1.65268e-247,0,6.10255e+06,363
0.00262,3.9813e-246,1,4.29978e-246,0,6.10255e+06,363
0.00264,1.05998e-244,1,1.11194e-244,0,6.10255e+06,363
0.00266,2.80511e-243,1,2.85818e-243,0,6.10255e+06,363
0.00268,7.37862e-242,1,7.30242e-242,0,6.10255e+06,363
0.0027,1.92914e-240,1,1.85442e-240,0,6.10255e+06,363
0.00272,5.01312e-239,1,4.68065e-239,0,6.10255e+06,363
0.00274,1.29479e-237,1,1.17424e-237,0,6.10255e+06,363
0.00276,3.32378e-236,1,2.92792e-236,0,6.10255e+06,363
0.00278,8.47998e-235,1,7.2561e-235,0,6.10255e+06,363
0.0028,2.15021e-233,1,1.78726e-233,0,6.10255e+06,363
0.00282,5.41853e-232,1,4.37529e-232,0,6.10255e+06,363
0.00284,1.35703e-230,1,1.06453e-230,0,6.10255e+06,363
0.00286,3.37748e-229,1,2.57415e-229,0,6.10255e+06,363
0.00288,8.35387e-228,1,6.18633e-228,0,6.10255e+06,363
0.0029,2.05335e-226,1,1.47758e-226,0,6.10255e+06,363
0.00292,5.01545e-225,1,3.5074e-225,0,6.10255e+06,363
0.00294,1.21737e-223,1,8.27428e-224,4.44089e-16,6.10255e+06,363
0.00296,2.93621e-222,1,1.93992e-222,6.66134e-16,6.10255e+06,363
0.00298,7.03719e-221,1,4.52005e-221,4.44089e-16,6.10255e+06,363
0.003,1.6759e-219,1,1.04666e-219,2.22045e-16,6.10255e+06,363
0.00302,3.96577e-218,1,2.4086e-218,2.22045e-16,6.10255e+06,363
0.00304,9.32449e-217,1,5.50835e-217,3.33067e-16,6.10255e+06,363
0.00306,2.17838e-215,1,1.25191e-215,0,6.10255e+06,363
0.00308,5.05643e-214,1,2.82758e-214,0,6.10255e+06,363
0.0031,1.16613e-212,1,6.34669e-213,1.11022e-16,6.10255e+06,363
0.00312,2.67198e-211,1,1.41569e-211,7.77156e-16,6.10255e+06,363
0.00314,6.08265e-210,1,3.13814e-210,4.44089e-16,6.10255e+06,363
0.00316,1.37568e-208,1,6.91291e-209,4.44089e-16,6.10255e+06,363
0.00318,3.091e-207,1,1.51332e-207,8.88178e-16,6.10255e+06,363
0.0032,6.89963e-206,1,3.29218e-206,1.22125e-15,6.10255e+06,363
0.00322,1.52999e-204,1,7.11728e-205,5.55112e-16,6.10255e+06,363
0.00324,3.37039e-203,1,1.52905e-203,5.55112e-16,6.10255e+06,363
0.00326,7.37547e-202,1,3.26443e-202,4.44089e-16,6.10255e+06,363
0.00328,1.60327e-200,1,6.92576e-201,5.55112e-16,6.10255e+06,363
0.0033,3.46196e-199,1,1.46017e-199,6.66134e-16,6.10255e+06,363
0.00332,7.42549e-198,1,3.05921e-198,6.66134e-16,6.10255e+06,363
0.00334,1.582e-196,1,6.36925e-197,6.66134e-16,6.10255e+06,363
0.00336,3.3478e-195,1,1.31777e-195,6.66134e-16,6.10255e+06,363
0.00338,7.03671e-194,1,2.7093e-194,4.44089e-16,6.10255e+06,363
0.0034,1.46902e-192,1,5.53533e-193,1.11022e-16,6.10255e+06,363
0.00342,3.04598e-191,1,1.12382e-191,5.55112e-16,6.10255e+06,363
0.00344,6.27269e-190,1,2.26733e-190,7.77156e-16,6.10255e+06,363
0.00346,1.28292e-188,1,4.54564e-189,6.66134e-16,6.10255e+06,363
0.00348,2.60587e-187,1,9.05601e-188,4.44089e-16,6.10255e+06,363
0.0035,5.25659e-186,1,1.79282e-186,0,6.10255e+06,363
0.00352,1.05303e-184,1,3.52689e-185,2.22045e-16,6.10255e+06,363
0.00354,2.09487e-183,1,6.89445e-184,1.11022e-16,6.10255e+06,363
0.00356,4.13847e-182,1,1.33923e-182,1.11022e-16,6.10255e+06,363
0.00358,8.11852e-181,1,2.58499e-181,6.66134e-16,6.10255e+06,363
0.0036,1.58146e-179,1,4.95794e-180,3.33067e-16,6.10255e+06,363
0.00362,3.05897e-178,1,9.44888e-179,2.22045e-16,6.10255e+06,363
0.00364,5.8751e-177,1,1.78933e-177,6.66134e-16,6.10255e+06,363
0.00366,1.12039e-175,1,3.36686e-176,5.55112e-16,6.10255e+06,363
0.00368,2.12139e-174,1,6.29474e-175,7.77156e-16,6.10255e+06,363
0.0037,3.98809e-173,1,1.16934e-173,5.55112e-16,6.10255e+06,363
0.00372,7.44367e-172,1,2.15829e-172,1.22125e-15,6.10255e+06,363
0.00374,1.37936e-170,1,3.95797e-171,9.99201e-16,6.10255e+06,363
0.00376,2.53761e-169,1,7.21142e-170,8.88178e-16,6.10255e+06,363
0.00378,4.63464e-168,1,1.3054e-168,1.22125e-15,6.10255e+06,363
0.0038,8.40314e-167,1,2.34766e-167,6.66134e-16,6.10255e+06,363
0.00382,1.51248e-165,1,4.1945e-166,3.33067e-16,6.10255e+06,363
0.00384,2.70238e-164,1,7.44505e-165,4.44089e-16,6.10255e+06,363
0.00386,4.79295e-163,1,1.31276e-163,6.66134e-16,6.10255e+06,363
0.00388,8.43813e-162,1,2.29943e-162,8.88178e-16,6.10255e+06,363
0.0039,1.47457e-160,1,4.00089e-161,3.33067e-16,6.10255e+06,363
0.00392,2.55767e-159,1,6.91483e-160,5.55112e-16,6.10255e+06,363
0.00394,4.40328e-158,1,1.18708e-158,8.88178e-16,6.10255e+06,363
0.00396,7.52395e-157,1,2.02412e-157,9.99201e-16,6.10255e+06,363
0.00398,1.27598e-155,1,3.42793e-156,2.22045e-16,6.10255e+06,363
0.004,2.1476e-154,1,5.7657e-155,5.55112e-16,6.10255e+06,363
0.00402,3.58727e-153,1,9.63116e-154,5.55112e-16,6.10255e+06,363
0.00404,5.94654e-152,1,1.59769e-152,1.11022e-15,6.10255e+06,363
0.00406,9.7823e-151,1,2.63195e-151,7.77156e-16,6.10255e+06,363
0.00408,1.59691e-149,1,4.30539e-150,5.55112e-16,6.10255e+06,363
0.0041,2.58685e-148,1,6.99325e-149,1.11022e-16,6.10255e+06,363
0.00412,1.03814e-147,1,2.81096e-148,4.44089e-16,6.10255e+06,363
0.00414,6.63212e-146,1,1.80604e-146,5.55112e-16,6.10255e+06,363
0.00416,1.04958e-144,1,2.87124e-145,5.55112e-16,6.10255e+06,363
0.00418,1.64808e-143,1,4.5317e-144,8.88178e-16,6.10255e+06,363
0.0042,2.56759e-142,1,7.10042e-143,7.77156e-16,6.10255e+06,363
0.00422,3.96866e-141,1,1.10437e-141,5.55112e-16,6.10255e+06,363
0.00424,6.08583e-140,1,1.70504e-140,1.11022e-16,6.10255e+06,363
0.00426,9.25847e-139,1,2.61289e-139,3.33067e-16,6.10255e+06,363
0.00428,1.3973e-137,1,3.97423e-138,0,6.10255e+06,363
0.0043,2.09197e-136,1,5.9994e-137,5.55112e-16,6.10255e+06,363
0.00432,3.10687e-135,1,8.98804e-136,2.22045e-16,6.10255e+06,363
0.00434,4.57699e-134,1,1.3363e-134,3.33067e-16,6.10255e+06,363
0.00436,6.6882e-133,1,1.97151e-133,8.88178e-16,6.10255e+06,363
0.00438,9.6939e-132,1,2.88625e-132,6.66134e-16,6.10255e+06,363
0.0044,1.39358e-130,1,4.1926e-131,1.11022e-15,6.10255e+06,363
0.00442,1.98699e-129,1,6.04264e-130,8.88178e-16,6.10255e+06,363
0.00444,2.8098e-128,1,8.64057e-129,1.22125e-15,6.10255e+06,363
0.00446,1.05334e-127,1,3.25768e-128,1.11022e-15,6.10255e+06,363
0.00448,5.48051e-126,1,1.72506e-126,7.77156e-16,6.10255e+06,363
0.0045,7.55886e-125,1,2.40829e-125,1.22125e-15,6.10255e+06,363
0.00452,1.03382e-123,1,3.33503e-124,1.33227e-15,6.10255e+06,363
0.00454,1.40209e-122,1,4.58094e-123,1.88738e-15,6.10255e+06,363
0.00456,1.88552e-121,1,6.241e-122,1.44329e-15,6.10255e+06,363
0.00458,2.51416e-120,1,8.43288e-121,1.44329e-15,6.10255e+06,363
0.0046,3.32391e-119,1,1.13005e-119,1.11022e-15,6.10255e+06,363
0.00462,4.35693e-118,1,1.50177e-118,1.11022e-15,6.10255e+06,363
0.00464,5.66205e-117,1,1.97909e-117,1.44329e-15,6.10255e+06,363
0.00466,7.29475e-116,1,2.58622e-116,1.44329e-15,6.10255e+06,363
0.00468,9.31699e-115,1,3.35108e-115,8.88178e-16,6.10255e+06,363
0.0047,1.17965e-113,1,4.30525e-114,1.33227e-15,6.10255e+06,363
0.00472,1.48055e-112,1,5.48389e-113,7.77156e-16,6.10255e+06,363
0.00474,1.84194e-111,1,6.92522e-112,1.11022e-15,6.10255e+06,363
0.00476,2.27136e-110,1,8.66985e-111,9.99201e-16,6.10255e+06,363
0.00478,2.77615e-109,1,1.07598e-109,9.99201e-16,6.10255e+06,363
0.0048,3.36299e-108,1,1.32369e-108,6.66134e-16,6.10255e+06,363
0.00482,4.03755e-107,1,1.61414e-107,5.55112e-16,6.10255e+06,363
0.00484,4.80401e-106,1,1.95096e-106,9.99201e-16,6.10255e+06,363
0.00486,5.66453e-105,1,2.33714e-105,1.44329e-15,6.10255e+06,363
0.00488,6.61882e-104,1,2.77479e-104,1.44329e-15,6.10255e+06,363
0.0049,7.66366e-103,1,3.26485e-103,2.22045e-16,6.10255e+06,363
0.00492,8.79252e-102,1,3.80684e-102,1.11022e-16,6.10255e+06,363
0.00494,9.99523e-101,1,4.39858e-101,2.22045e-16,6.10255e+06,363
0.00496,1.12579e-99,1,5.036e-100,1.11022e-16,6.10255e+06,363
0.00498,1.25628e-98,1,5.713e-99,6.66134e-16,6.10255e+06,363
0.005,1.38887e-97,1,6.42136e-98,3.33067e-16,6.10255e+06,363
0.00502,1.52113e-96,1,7.15075e-97,1.33227e-15,6.10255e+06,363
0.00504,1.65036e-95,1,7.88894e-96,1.11022e-15,6.10255e+06,363
0.00506,1.7737e-94,1,8.62195e-95,4.44089e-16,6.10255e+06,363
0.00508,1.88822e-93,1,9.33451e-94,7.77156e-16,6.10255e+06,363
0.0051,1.99101e-92,1,1.00105e-92,5.55112e-16,6.10255e+06,363
0.00512,6.44204e-92,1,3.26651e-92,8.88178e-16,6.10255e+06,363
0.00514,2.15076e-90,1,1.11874e-90,7.77156e-16,6.10255e+06,363
0.00516,2.20315e-89,1,1.16572e-89,8.88178e-16,6.10255e+06,363
0.00518,2.23495e-88,1,1.20296e-88,1.55431e-15,6.10255e+06,363
0.0052,2.24513e-87,1,1.22936e-87,4.44089e-16,6.10255e+06,363
0.00522,2.23328e-86,1,1.24409e-86,0,6.10255e+06,363
0.00524,2.19964e-85,1,1.24666e-85,1.11022e-16,6.10255e+06,363
0.00526,2.1451e-84,1,1.23693e-84,0,6.10255e+06,363
0.00528,2.07113e-83,1,1.21513e-83,0,6.10255e+06,363
0.0053,1.97975e-82,1,1.18183e-82,3.33067e-16,6.10255e+06,363
0.00532,1.87342e-81,1,1.13795e-81,2.22045e-16,6.10255e+06,363
0.00534,1.75493e-80,1,1.08467e-80,1.11022e-16,6.10255e+06,363
0.00536,1.62727e-79,1,1.02344e-79,6.66134e-16,6.10255e+06,363
0.00538,1.49354e-78,1,9.55851e-79,0,6.10255e+06,363
0.0054,1.35676e-77,1,8.83602e-78,7.77156e-16,6.10255e+06,363
0.00542,1.21982e-76,1,8.08423e-77,1.11022e-16,6.10255e+06,363
0.00544,1.08537e-75,1,7.32002e-76,1.11022e-16,6.10255e+06,363
0.00546,9.55698e-75,1,6.55923e-75,0,6.10255e+06,363
0.00548,8.32725e-74,1,5.81616e-74,1.11022e-16,6.10255e+06,363
0.0055,7.17953e-73,1,5.10313e-73,0,6.10255e+06,363
0.00552,6.12464e-72,1,4.43027e-72,2.22045e-16,6.10255e+06,363
0.00554,5.16929e-71,1,3.80531e-71,1.55431e-15,6.10255e+06,363
0.00556,4.3164e-70,1,3.23365e-70,8.88178e-16,6.10255e+06,363
0.00558,3.56556e-69,1,2.71838e-69,1.55431e-15,6.10255e+06,363
0.0056,2.91356e-68,1,2.26057e-68,2.10942e-15,6.10255e+06,363
0.00562,2.35496e-67,1,1.85947e-67,1.77636e-15,6.10255e+06,363
0.00564,1.88271e-66,1,1.51286e-66,1.88738e-15,6.10255e+06,363
0.00566,1.48866e-65,1,1.21735e-65,1.33227e-15,6.10255e+06,363
0.00568,1.16411e-64,1,9.68762e-65,2.33147e-15,6.10255e+06,363
0.0057,9.00223e-64,1,7.62383e-64,2.33147e-15,6.10255e+06,363
0.00572,6.88397e-63,1,5.93276e-63,1.9984e-15,6.10255e+06,363
0.00574,5.20514e-62,1,4.56499e-62,1.44329e-15,6.10255e+06,363
0.00576,3.89137e-61,1,3.47291e-61,1.44329e-15,6.10255e+06,363
0.00578,2.87622e-60,1,2.6121e-60,7.77156e-16,6.10255e+06,363
0.0058,2.10166e-59,1,1.94222e-59,1.22125e-15,6.10255e+06,363
0.00582,1.51807e-58,1,1.42755e-58,1.44329e-15,6.10255e+06,363
0.00584,1.08389e-57,1,1.03714e-57,5.55112e-16,6.10255e+06,363
0.00586,7.64916e-57,1,7.4475e-57,1.22125e-15,6.10255e+06,363
0.00588,5.33513e-56,1,5.28537e-56,5.55112e-16,6.10255e+06,363
0.0059,3.67747e-55,1,3.70684e-55,4.44089e-16,6.10255e+06,363
0.00592,2.50494e-54,1,2.569e-54,8.88178e-16,6.10255e+06,363
0.00594,1.686e-53,1,1.75924e-53,1.11022e-15,6.10255e+06,363
0.00596,1.12124e-52,1,1.19029e-52,1.55431e-15,6.10255e+06,363
0.00598,7.367e-52,1,7.95648e-52,2.10942e-15,6.10255e+06,363
0.006,4.78191e-51,1,5.25403e-51,1.22125e-15,6.10255e+06,363
0.00602,3.06618e-50,1,3.42717e-50,2.22045e-15,6.10255e+06,363
0.00604,1.942e-49,1,2.2081e-49,1.55431e-15,6.10255e+06,363
0.00606,1.21485e-48,1,1.4051e-48,9.99201e-16,6.10255e+06,363
0.00608,7.50555e-48,1,8.83009e-48,5.55112e-16,6.10255e+06,363
0.0061,4.57928e-47,1,5.47977e-47,6.66134e-16,6.10255e+06,363
0.00612,2.75888e-46,1,3.35785e-46,2.22045e-16,6.10255e+06,363
0.00614,1.64117e-45,1,2.03155e-45,0,6.10255e+06,363
0.00616,9.63889e-45,1,1.21346e-44,0,6.10255e+06,363
0.00618,5.58876e-44,1,7.15519e-44,0,6.10255e+06,363
0.0062,3.19877e-43,1,4.16461e-43,0,6.10255e+06,363
0.00622,1.80714e-42,1,2.39249e-42,0,6.10255e+06,363
0.00624,1.00765e-41,1,1.35646e-41,0,6.10255e+06,363
0.00626,5.54489e-41,1,7.58947e-41,0,6.10255e+06,363
0.00628,3.01097e-40,1,4.19007e-40,0,6.10255e+06,363
0.0063,1.61328e-39,1,2.28244e-39,0,6.10255e+06,363
0.00632,8.52839e-39,1,1.2266e-38,4.44089e-16,6.10255e+06,363
0.00634,4.4477e-38,1,6.50268e-38,1.11022e-16,6.10255e+06,363
0.00636,2.28811e-37,1,3.40038e-37,1.66533e-15,6.10255e+06,363
0.00638,1.16105e-36,1,1.75375e-36,1.66533e-15,6.10255e+06,363
0.0064,5.81052e-36,1,8.92018e-36,1.11022e-15,6.10255e+06,363
0.00642,2.86769e-35,1,4.47406e-35,1.55431e-15,6.10255e+06,363
0.00644,1.39561e-34,1,2.21265e-34,1.22125e-15,6.10255e+06,363
0.00646,6.69678e-34,1,1.07886e-33,7.77156e-16,6.10255e+06,363
0.00648,3.16813e-33,1,5.18584e-33,1.88738e-15,6.10255e+06,363
0.0065,1.47753e-32,1,2.45718e-32,1.44329e-15,6.10255e+06,363
0.00652,6.79239e-32,1,1.14756e-31,8.88178e-16,6.10255e+06,363
0.00654,3.0777e-31,1,5.282e-31,8.88178e-16,6.10255e+06,363
0.00656,1.37438e-30,1,2.39587e-30,2.22045e-16,6.10255e+06,363
0.00658,6.04817e-30,1,1.07085e-29,5.55112e-16,6.10255e+06,363
0.0066,2.62261e-29,1,4.71577e-29,9.99201e-16,6.10255e+06,363
0.00662,1.12044e-28,1,2.04591e-28,6.66134e-16,6.10255e+06,363
0.00664,4.71568e-28,1,8.74346e-28,5.55112e-16,6.10255e+06,363
0.00666,1.95499e-27,1,3.68034e-27,0,6.10255e+06,363
0.00668,7.98248e-27,1,1.52562e-26,1.11022e-16,6.10255e+06,363
0.0067,3.20969e-26,1,6.22723e-26,2.22045e-16,6.10255e+06,363
0.00672,1.27075e-25,1,2.50252e-25,3.33067e-16,6.10255e+06,363
0.00674,4.9531e-25,1,9.89994e-25,3.33067e-16,6.10255e+06,363
0.00676,1.90045e-24,1,3.85484e-24,6.66134e-16,6.10255e+06,363
0.00678,7.17711e-24,1,1.47723e-23,2.22045e-16,6.10255e+06,363
0.0068,2.66759e-23,1,5.57085e-23,4.44089e-16,6.10255e+06,363
0.00682,9.75731e-23,1,2.06722e-22,9.99201e-16,6.10255e+06,363
0.00684,3.51192e-22,1,7.54757e-22,1.22125e-15,6.10255e+06,363.001
0.00686,1.24369e-21,1,2.71104e-21,0,6.10255e+06,363.001
0.00688,4.3328e-21,1,9.5786e-21,1.11022e-16,6.10255e+06,363.001
0.0069,1.48458e-20,1,3.32813e-20,6.66134e-16,6.10255e+06,363.001
0.00692,5.0014e-20,1,1.13683e-19,7.77156e-16,6.10255e+06,363.001
0.00694,1.6561e-19,1,3.81626e-19,0,6.10255e+06,363.001
0.00696,5.38772e-19,1,1.25846e-18,1.11022e-16,6.10255e+06,363.001
0.00698,1.72149e-18,1,4.07526e-18,1.11022e-16,6.10255e+06,363.001
0.007,5.40248e-18,1,1.29595e-17,2.22045e-16,6.10255e+06,363.001
0.00702,1.66664e-17,1,4.05055e-17,5.55112e-16,6.10255e+06,363.001
0.00704,5.05636e-17,1,1.24492e-16,5.55112e-16,6.10255e+06,363.001
0.00706,1.54025e-16,1,3.84334e-16,2.10942e-15,6.10255e+06,363.001
0.00708,4.82248e-16,1,1.22089e-15,9.88098e-15,6.10255e+06,363.001
0.0071,1.60239e-15,1,4.12467e-15,3.81917e-14,6.10255e+06,363.001
0.00712,5.63449e-15,1,1.47795e-14,1.37002e-13,6.10255e+06,363.001
0.00714,2.01202e-14,1,5.38361e-14,4.81282e-13,6.10255e+06,363.001
0.00716,7.0847e-14,1,1.93385e-13,1.65534e-12,6.10255e+06,363.002
0.00718,2.43348e-13,1,6.77406e-13,5.53824e-12,6.10255e+06,363.003
0.0072,8.12451e-13,1,2.30538e-12,1.80126e-11,6.10255e+06,363.004
0.00722,2.63491e-12,1,7.61774e-12,5.69538e-11,6.10255e+06,363.006
0.00724,8.30001e-12,1,2.44369e-11,1.75032e-10,6.10255e+06,363.009
0.00726,2.53927e-11,1,7.60979e-11,5.22758e-10,6.10255e+06,363.015
0.00728,7.54457e-11,1,2.3003e-10,1.51731e-09,6.10255e+06,363.026
0.0073,2.17688e-10,1,6.7493e-10,4.27973e-09,6.10255e+06,363.043
0.00732,6.09936e-10,1,1.92211e-09,1.17304e-08,6.10255e+06,363.072
0.00734,1.65944e-09,1,5.31269e-09,3.12416e-08,6.10255e+06,363.118
0.00736,4.38362e-09,1,1.42509e-08,8.08456e-08,6.10255e+06,363.193
0.00738,1.12424e-08,1,3.70958e-08,2.03257e-07,6.10255e+06,363.312
0.0074,2.79891e-08,0.999999,9.36945e-08,4.96425e-07,6.10255e+06,363.498
0.00742,6.76307e-08,0.999999,2.29586e-07,1.17766e-06,6.10255e+06,363.783
0.00744,1.58572e-07,0.999997,5.4567e-07,2.71307e-06,6.10255e+06,364.214
0.00746,3.60664e-07,0.999992,1.25762e-06,6.06825e-06,6.10255e+06,364.854
0.00748,7.95409e-07,0.999983,2.80964e-06,1.31728e-05,6.10255e+06,365.789
0.0075,1.70006e-06,0.999964,6.08177e-06,2.77404e-05,6.10255e+06,367.131
0.00752,3.51914e-06,0.999927,1.2748e-05,5.66412e-05,6.10255e+06,369.017
0.00754,7.04979e-06,0.999855,2.58581e-05,0.000112063,6.10255e+06,371.617
0.00756,1.36557e-05,0.999721,5.07198e-05,0.000214683,6.10255e+06,375.12
0.00758,2.55552e-05,0.99948,9.61306e-05,0.000397953,6.10255e+06,379.73
0.0076,4.61676e-05,0.999065,0.000175943,0.00071334,6.10255e+06,385.649
0.00762,8.04744e-05,0.998373,0.000310828,0.00123599,6.10255e+06,393.054
0.00764,0.000135323,0.997265,0.000529994,0.00206989,6.10255e+06,402.078
0.00766,0.000219597,0.995556,0.00087254,0.00335156,6.10255e+06,412.797
0.00768,0.000344198,0.993016,0.00138818,0.00525139,6.10255e+06,425.223
0.0077,0.000521852,0.989368,0.00213726,0.00797265,6.10255e+06,439.311
0.00772,0.000766798,0.984294,0.00319016,0.0117486,6.10255e+06,454.976
0.00774,0.00109446,0.97744,0.00462647,0.0168388,6.10255e+06,472.105
0.00776,0.00152118,0.968419,0.00653409,0.0235257,6.10255e+06,490.58
0.00778,0.00206411,0.956815,0.00900867,0.0321123,6.10255e+06,510.285
0.0078,0.00274116,0.942186,0.0121532,0.04292,6.10255e+06,531.107
0.00782,0.00357098,0.924065,0.0160774,0.0562865,6.10255e+06,552.94
0.00784,0.00457294,0.901968,0.020897,0.072562,6.10255e+06,575.666
0.00786,0.00514464,0.889274,0.0236797,0.0819015,6.10255e+06,587.323
0.00788,0.00717182,0.843884,0.0336971,0.115247,6.10255e+06,623.218
0.0079,0.00795917,0.826131,0.0376392,0.128271,6.10255e+06,635.402
0.00792,0.0106819,0.764368,0.0514364,0.173514,6.10255e+06,672.121
0.00794,0.012807,0.715881,0.062341,0.208971,6.10255e+06,696.287
0.00796,0.0151761,0.661636,0.0745994,0.248589,6.10255e+06,719.701
0.00798,0.0177685,0.602123,0.0881036,0.292005,6.10255e+06,741.893
0.008,0.0205434,0.5383,0.102633,0.338524,6.10255e+06,762.408
0.00802,0.023438,0.47164,0.117841,0.387082,6.10255e+06,780.876
0.00804,0.0263692,0.404088,0.133265,0.436277,6.10255e+06,797.075
0.00806,0.0292402,0.337907,0.148368,0.484485,6.10255e+06,810.974
0.00808,0.0319527,0.275398,0.162601,0.530048,6.10255e+06,822.727
0.0081,0.0344207,0.218587,0.175486,0.571506,6.10255e+06,832.629
0.00812,0.0365826,0.168931,0.186683,0.607804,6.10255e+06,841.037
0.00814,0.0384078,0.127164,0.196029,0.638399,6.10255e+06,848.297
0.00816,0.0398964,0.0933038,0.203533,0.663266,6.10255e+06,854.69
0.00818,0.0410726,0.0667884,0.209341,0.682798,6.10255e+06,860.416
0.0082,0.0415555,0.056002,0.211678,0.690764,6.10255e+06,863.069
0.00822,0.0426525,0.0318919,0.216816,0.70864,6.10255e+06,870.297
0.00824,0.0429204,0.0261396,0.218014,0.712926,6.10255e+06,872.478
0.00826,0.0435062,0.0139313,0.220488,0.722074,6.10255e+06,878.369
0.00828,0.0437602,0.00891709,0.221454,0.725869,6.10255e+06,881.766
0.0083,0.043939,0.00558948,0.222057,0.728414,6.10255e+06,884.756
0.00832,0.0440644,0.00343193,0.222416,0.730087,6.10255e+06,887.359
0.00834,0.0441524,0.00206459,0.222615,0.731168,6.10255e+06,889.601
0.00836,0.0442145,0.0012176,0.222714,0.731854,6.10255e+06,891.511
0.00838,0.0442584,0.000715699,0.222751,0.732275,6.10255e+06,893.107
0.0084,0.0442899,0.000423154,0.222755,0.732532,6.10255e+06,894.421
0.00842,0.0443146,0.000233646,0.222744,0.732707,6.10255e+06,895.551
0.00844,0.0443332,0.000126637,0.222726,0.732815,6.10255e+06,896.475
0.00846,0.0443474,6.71894e-05,0.222705,0.732881,6.10255e+06,897.228
0.00848,0.0443586,3.49043e-05,0.222684,0.732922,6.10255e+06,897.836
0.0085,0.0443673,1.77539e-05,0.222667,0.732948,6.10255e+06,898.323
0.00852,0.0443743,8.84141e-06,0.222652,0.732965,6.10255e+06,898.71
0.00854,0.0443772,6.18988e-06,0.222645,0.732971,6.10255e+06,898.871
0.00856,0.0443842,2.05738e-06,0.22263,0.732984,6.10255e+06,899.252
0.00858,0.0443861,1.41005e-06,0.222626,0.732987,6.10255e+06,899.351
0.0086,0.0443905,4.3963e-07,0.222616,0.732993,6.10255e+06,899.579
0.00862,0.0443927,1.96812e-07,0.222612,0.732995,6.10255e+06,899.688
0.00864,0.0443944,8.6242e-08,0.222609,0.732997,6.10255e+06,899.77
0.00866,0.0443958,3.69899e-08,0.222606,0.732998,6.10255e+06,899.832
0.00868,0.0443968,1.55288e-08,0.222605,0.732999,6.10255e+06,899.878
0.0087,0.0443976,6.38091e-09,0.222603,0.732999,6.10255e+06,899.912
0.00872,0.0443982,2.56633e-09,0.222602,0.733,6.10255e+06,899.937
0.00874,0.0443987,1.01024e-09,0.222602,0.733,6.10255e+06,899.955
0.00876,0.044399,3.8924e-10,0.222601,0.733,6.10255e+06,899.968
0.00878,0.0443993,1.46783e-10,0.222601,0.733,6.10255e+06,899.978
0.0088,0.0443995,5.417e-11,0.222601,0.733,6.10255e+06,899.985
0.00882,0.0443996,1.95593e-11,0.2226,0.733,6.10255e+06,899.989
0.00884,0.0443997,7.25664e-12,0.2226,0.733,6.10255e+06,899.993
0.00886,0.0443998,2.8926e-12,0.2226,0.733,6.10255e+06,899.995
0.00888,0.0443998,1.69531e-12,0.2226,0.733,6.10255e+06,899.996
0.0089,0.0443999,3.27571e-13,0.2226,0.733,6.10255e+06,899.998
0.00892,0.0443999,1.87248e-13,0.2226,0.733,6.10255e+06,899.998
0.00894,0.0444,3.39753e-14,0.2226,0.733,6.10255e+06,899.999
0.00896,0.0444,1.06905e-14,0.2226,0.733,6.10255e+06,899.999
0.00898,0.0444,3.36582e-15,0.2226,0.733,6.10255e+06,900
0.009,0.0444,1.09053e-15,0.2226,0.733,6.10255e+06,900
0.00902,0.0444,3.71551e-16,0.2226,0.733,6.10255e+06,900
0.00904,0.0444,1.31534e-16,0.2226,0.733,6.10255e+06,900
0.00906,0.0444,4.72136e-17,0.2226,0.733,6.10255e+06,900
0.00908,0.0444,1.69183e-17,0.2226,0.733,6.10255e+06,900
0.0091,0.0444,6.00974e-18,0.2226,0.733,6.10255e+06,900
0.00912,0.0444,2.11034e-18,0.2226,0.733,6.10255e+06,900
0.00914,0.0444,7.31806e-19,0.2226,0.733,6.10255e+06,900
0.00916,0.0444,2.50519e-19,0.2226,0.733,6.10255e+06,900
0.00918,0.0444,8.46553e-20,0.2226,0.733,6.10255e+06,900
0.0092,0.0444,2.82386e-20,0.2226,0.733,6.10255e+06,900
0.00922,0.0444,1.62306e-20,0.2226,0.733,6.10255e+06,900
0.00924,0.0444,3.02309e-21,0.2226,0.733,6.10255e+06,900
0.00926,0.0444,9.70353e-22,0.2226,0.733,6.10255e+06,900
0.00928,0.0444,3.07539e-22,0.2226,0.733,6.10255e+06,900
0.0093,0.0444,9.62482e-23,0.2226,0.733,6.10255e+06,900
0.00932,0.0444,2.97467e-23,0.2226,0.733,6.10255e+06,900
0.00934,0.0444,9.07964e-24,0.2226,0.733,6.10255e+06,900
0.00936,0.0444,2.73724e-24,0.2226,0.733,6.10255e+06,900
0.00938,0.0444,8.15084e-25,0.2226,0.733,6.10255e+06,900
0.0094,0.0444,2.39755e-25,0.2226,0.733,6.10255e+06,900
0.00942,0.0444,6.96686e-26,0.2226,0.733,6.10255e+06,900
0.00944,0.0444,2.00006e-26,0.2226,0.733,6.10255e+06,900
0.00946,0.0444,5.67305e-27,0.2226,0.733,6.10255e+06,900
0.00948,0.0444,1.58996e-27,0.2226,0.733,6.10255e+06,900
0.0095,0.0444,4.40336e-28,0.2226,0.733,6.10255e+06,900
0.00952,0.0444,1.20515e-28,0.2226,0.733,6.10255e+06,900
0.00954,0.0444,3.25978e-29,0.2226,0.733,6.10255e+06,900
0.00956,0.0444,1.68793e-29,0.2226,0.733,6.10255e+06,900
0.00958,0.0444,2.3029e-30,0.2226,0.733,6.10255e+06,900
0.0096,0.0444,6.01556e-31,0.2226,0.733,6.10255e+06,900
0.00962,0.0444,1.55343e-31,0.2226,0.733,6.10255e+06,900
0.00964,0.0444,3.96598e-32,0.2226,0.733,6.10255e+06,900
0.00966,0.0444,1.00112e-32,0.2226,0.733,6.10255e+06,900
0.00968,0.0444,2.49877e-33,0.2226,0.733,6.10255e+06,900
0.0097,0.0444,6.16741e-34,0.2226,0.733,6.10255e+06,900
0.00972,0.0444,1.50538e-34,0.2226,0.733,6.10255e+06,900
0.00974,0.0444,3.63398e-35,0.2226,0.733,6.10255e+06,900
0.00976,0.0444,8.67649e-36,0.2226,0.733,6.10255e+06,900
0.00978,0.0444,2.04908e-36,0.2226,0.733,6.10255e+06,900
0.0098,0.0444,4.78689e-37,0.2226,0.733,6.10255e+06,900
0.00982,0.0444,1.10626e-37,0.2226,0.733,6.10255e+06,900
0.00984,0.0444,2.52926e-38,0.2226,0.733,6.10255e+06,900
0.00986,0.0444,5.72116e-39,0.2226,0.733,6.10255e+06,900
0.00988,0.0444,1.28034e-39,0.2226,0.733,6.10255e+06,900
0.0099,0.0444,6.03228e-40,0.2226,0.733,6.10255e+06,900
0.00992,0.0444,6.19712e-41,0.2226,0.733,6.10255e+06,900
0.00994,0.0444,1.33011e-41,0.2226,0.733,6.10255e+06,900
0.00996,0.0444,2.71567e-42,0.2226,0.733,6.10255e+06,900