x,NH3,C7H16,O2,N2,p,T
0,1.67982e-322,1,2.09207e-284,0,6.10227e+06,363
2e-05,0,1,1.4547e-283,0,6.10227e+06,363
4e-05,1.63042e-322,1,3.17301e-282,1.11022e-16,6.10227e+06,363
6e-05,1.58101e-322,1,2.43548e-280,0,6.10227e+06,363
8e-05,3.45846e-323,1,4.27903e-279,0,6.10227e+06,363
0.0001,0,1,7.46614e-278,5.55112e-16,6.10227e+06,363
0.00012,0,1,1.29568e-276,7.77156e-16,6.10227e+06,363
0.00014,0,1,2.23697e-275,4.44089e-16,6.10227e+06,363
0.00016,0,1,9.27709e-275,3.33067e-16,6.10227e+06,363
0.00018,0,1,6.56661e-273,6.66134e-16,6.10227e+06,363
0.0002,1.97626e-323,1,1.11649e-271,3.33067e-16,6.10227e+06,363
0.00022,2.47033e-323,1,1.88865e-270,3.33067e-16,6.10227e+06,363
0.00024,0,1,3.17852e-269,0,6.10227e+06,363
0.00026,1.38338e-322,1,5.32199e-268,1.11022e-16,6.10227e+06,363
0.00028,3.95253e-323,1,8.86534e-267,1.11022e-16,6.10227e+06,363
0.0003,1.28457e-322,1,1.46922e-265,0,6.10227e+06,363
0.00032,1.43279e-322,1,5.96961e-265,2.22045e-16,6.10227e+06,363
0.00034,2.47033e-323,1,3.97348e-263,2.22045e-16,6.10227e+06,363
0.00036,1.33398e-322,1,6.48424e-262,3.33067e-16,6.10227e+06,363.001
0.00038,1.97626e-323,1,1.0527e-260,3.33067e-16,6.10227e+06,363.001
0.0004,1.67982e-322,1,1.70024e-259,5.55112e-16,6.10227e+06,363.001
0.00042,0,1,2.73194e-258,7.77156e-16,6.10227e+06,363.001
0.00044,0,1,4.367e-257,7.77156e-16,6.10227e+06,363.001
0.00046,0,1,6.94458e-256,3.33067e-16,6.10227e+06,363.001
0.00048,0,1,1.09864e-254,3.33067e-16,6.10227e+06,363.001
0.0005,0,1,1.72905e-253,1.11022e-16,6.10227e+06,363.001
0.00052,1.38338e-322,1,2.7071e-252,3.33067e-16,6.10227e+06,363.001
0.00054,0,1,4.21638e-251,8.88178e-16,6.10227e+06,363.001
0.00056,1.38338e-322,1,6.53298e-250,1.66533e-15,6.10227e+06,363.001
0.00058,0,1,1.00697e-248,1.44329e-15,6.10227e+06,363.001
0.0006,0,1,1.54402e-247,1.22125e-15,6.10227e+06,363.001
0.00062,0,1,2.35516e-246,8.88178e-16,6.10227e+06,363.001
0.00064,0,1,3.57365e-245,4.44089e-16,6.10227e+06,363.001
0.00066,0,1,5.39421e-244,2.22045e-16,6.10227e+06,363.001
0.00068,1.58101e-322,1,8.0996e-243,0,6.10227e+06,363.001
0.0007,7.90505e-323,1,1.20981e-241,1.11022e-16,6.10227e+06,363.001
0.00072,6.89222e-321,1,1.79758e-240,0,6.10227e+06,363.001
0.00074,1.70705e-319,1,2.65687e-239,2.22045e-16,6.10227e+06,363.001
0.00076,4.44676e-318,1,3.90627e-238,1.11022e-16,6.10227e+06,363.001
0.00078,1.15466e-316,1,5.71297e-237,0,6.10227e+06,363.001
0.0008,2.98355e-315,1,8.31125e-236,0,6.10227e+06,363.001
0.00082,7.67177e-314,1,1.20274e-234,0,6.10227e+06,363.001
0.00084,1.96308e-312,1,1.73132e-233,1.11022e-16,6.10227e+06,363.001
0.00086,4.99869e-311,1,2.47902e-232,0,6.10227e+06,363.001
0.00088,1.26661e-309,1,3.53081e-231,9.99201e-16,6.10227e+06,363.001
0.0009,3.19374e-308,1,5.00219e-230,1.22125e-15,6.10227e+06,363.001
0.00092,8.01338e-307,1,7.04912e-229,1.55431e-15,6.10227e+06,363.001
0.00094,2.00074e-305,1,9.88084e-228,1.44329e-15,6.10227e+06,363.001
0.00096,4.97069e-304,1,1.37764e-226,9.99201e-16,6.10227e+06,363.002
0.00098,1.22883e-302,1,1.91055e-225,7.77156e-16,6.10227e+06,363.002
0.001,3.02281e-301,1,2.63546e-224,5.55112e-16,6.10227e+06,363.002
0.00102,7.39894e-300,1,3.616e-223,6.66134e-16,6.10227e+06,363.002
0.00104,1.80203e-298,1,4.93483e-222,8.88178e-16,6.10227e+06,363.002
0.00106,4.36701e-297,1,6.6986e-221,1.11022e-15,6.10227e+06,363.002
0.00108,1.05301e-295,1,9.04403e-220,8.88178e-16,6.10227e+06,363.002
0.0011,2.52639e-294,1,1.21451e-218,1.11022e-15,6.10227e+06,363.002
0.00112,6.03091e-293,1,1.62219e-217,8.88178e-16,6.10227e+06,363.002
0.00114,1.43244e-291,1,2.15506e-216,1.11022e-15,6.10227e+06,363.002
0.00116,3.38514e-290,1,2.84755e-215,5.55112e-16,6.10227e+06,363.002
0.00118,7.95936e-289,1,3.74226e-214,8.88178e-16,6.10227e+06,363.002
0.0012,1.86198e-287,1,4.89154e-213,3.33067e-16,6.10227e+06,363.002
0.00122,4.33375e-286,1,6.35919e-212,6.66134e-16,6.10227e+06,363.002
0.00124,1.00355e-284,1,8.22244e-211,5.55112e-16,6.10227e+06,363.002
0.00126,2.31204e-283,1,1.0574e-209,6.66134e-16,6.10227e+06,363.002
0.00128,5.2994e-282,1,1.35243e-208,8.88178e-16,6.10227e+06,363.002
0.0013,1.20846e-280,1,1.72038e-207,1.22125e-15,6.10227e+06,363.002
0.00132,2.74158e-279,1,2.17652e-206,8.88178e-16,6.10227e+06,363.002
0.00134,6.18773e-278,1,2.73861e-205,6.66134e-16,6.10227e+06,363.002
0.00136,1.38937e-276,1,3.42707e-204,5.55112e-16,6.10227e+06,363.002
0.00138,3.10354e-275,1,4.26517e-203,5.55112e-16,6.10227e+06,363.002
0.0014,6.8967e-274,1,5.27921e-202,3.33067e-16,6.10227e+06,363.002
0.00142,1.52464e-272,1,6.49856e-201,4.44089e-16,6.10227e+06,363.002
0.00144,3.35295e-271,1,7.9557e-200,2.22045e-16,6.10227e+06,363.003
0.00146,7.33529e-270,1,9.68611e-199,2.22045e-16,6.10227e+06,363.003
0.00148,1.59637e-268,1,1.17281e-197,2.22045e-16,6.10227e+06,363.003
0.0015,3.45596e-267,1,1.41224e-196,2.22045e-16,6.10227e+06,363.003
0.00152,7.4425e-266,1,1.69118e-195,0,6.10227e+06,363.003
0.00154,1.59433e-264,1,2.01404e-194,0,6.10227e+06,363.003
0.00156,3.39736e-263,1,2.3853e-193,3.33067e-16,6.10227e+06,363.003
0.00158,7.20119e-262,1,2.80936e-192,0,6.10227e+06,363.003
0.0016,1.51831e-260,1,3.29048e-191,1.11022e-16,6.10227e+06,363.003
0.00162,3.18423e-259,1,3.83263e-190,1.11022e-16,6.10227e+06,363.003
0.00164,6.64248e-258,1,4.43933e-189,0,6.10227e+06,363.003
0.00166,1.37827e-256,1,5.11347e-188,2.22045e-16,6.10227e+06,363.003
0.00168,2.84453e-255,1,5.85719e-187,0,6.10227e+06,363.003
0.0017,5.83919e-254,1,6.67168e-186,4.44089e-16,6.10227e+06,363.003
0.00172,1.19222e-252,1,7.55702e-185,1.11022e-16,6.10227e+06,363.003
0.00174,2.42112e-251,1,8.51201e-184,6.66134e-16,6.10227e+06,363.003
0.00176,4.89019e-250,1,9.53402e-183,7.77156e-16,6.10227e+06,363.003
0.00178,9.82383e-249,1,1.06189e-181,7.77156e-16,6.10227e+06,363.003
0.0018,1.9628e-247,1,1.17609e-180,7.77156e-16,6.10227e+06,363.003
0.00182,3.90035e-246,1,1.29525e-179,2.22045e-16,6.10227e+06,363.003
0.00184,7.70835e-245,1,1.41845e-178,0,6.10227e+06,363.003
0.00186,1.5151e-243,1,1.54463e-177,0,6.10227e+06,363.004
0.00188,2.9617e-242,1,1.67254e-176,2.22045e-16,6.10227e+06,363.004
0.0019,5.75773e-241,1,1.80081e-175,5.55112e-16,6.10227e+06,363.004
0.00192,1.11319e-239,1,1.92796e-174,7.77156e-16,6.10227e+06,363.004
0.00194,2.14037e-238,1,2.05238e-173,1.22125e-15,6.10227e+06,363.004
0.00196,4.09264e-237,1,2.17245e-172,9.99201e-16,6.10227e+06,363.004
0.00198,7.78231e-236,1,2.28648e-171,5.55112e-16,6.10227e+06,363.004
0.002,1.47163e-234,1,2.39282e-170,5.55112e-16,6.10227e+06,363.004
0.00202,2.76738e-233,1,2.48983e-169,2.22045e-16,6.10227e+06,363.004
0.00204,5.17502e-232,1,2.57601e-168,1.11022e-16,6.10227e+06,363.004
0.00206,2.23317e-231,1,8.26805e-168,1.11022e-16,6.10227e+06,363.004
0.00208,1.7795e-229,1,2.71042e-166,5.55112e-16,6.10227e+06,363.004
0.0021,3.27214e-228,1,2.75639e-165,1.11022e-16,6.10227e+06,363.004
0.00212,5.98295e-227,1,2.78707e-164,0,6.10227e+06,363.004
0.00214,1.08779e-225,1,2.80191e-163,0,6.10227e+06,363.004
0.00216,1.9666e-224,1,2.80063e-162,3.33067e-16,6.10227e+06,363.004
0.00218,3.53527e-223,1,2.78324e-161,6.66134e-16,6.10227e+06,363.004
0.0022,6.31913e-222,1,2.75e-160,5.55112e-16,6.10227e+06,363.005
0.00222,1.1231e-220,1,2.70146e-159,7.77156e-16,6.10227e+06,363.005
0.00224,1.9847e-219,1,2.63844e-158,1.11022e-16,6.10227e+06,363.005
0.00226,3.48725e-218,1,2.56196e-157,5.55112e-16,6.10227e+06,363.005
0.00228,6.09228e-217,1,2.47328e-156,1.11022e-16,6.10227e+06,363.005
0.0023,1.05822e-215,1,2.37379e-155,3.33067e-16,6.10227e+06,363.005
0.00232,1.82756e-214,1,2.26506e-154,0,6.10227e+06,363.005
0.00234,3.138e-213,1,2.14872e-153,0,6.10227e+06,363.005
0.00236,5.35698e-212,1,2.02646e-152,1.11022e-16,6.10227e+06,363.005
0.00238,9.09209e-211,1,1.9e-151,1.11022e-16,6.10227e+06,363.005
0.0024,1.53419e-209,1,1.77101e-150,1.11022e-16,6.10227e+06,363.005
0.00242,2.57373e-208,1,1.64111e-149,0,6.10227e+06,363.005
0.00244,4.29245e-207,1,1.51181e-148,0,6.10227e+06,363.005
0.00246,7.11708e-206,1,1.38451e-147,3.33067e-16,6.10227e+06,363.005
0.00248,1.17313e-204,1,1.26048e-146,4.44089e-16,6.10227e+06,363.005
0.0025,1.92235e-203,1,1.14079e-145,1.11022e-16,6.10227e+06,363.006
0.00252,3.13153e-202,1,1.02637e-144,1.11022e-16,6.10227e+06,363.006
0.00254,5.07117e-201,1,9.17975e-144,0,6.10227e+06,363.006
0.00256,8.16363e-200,1,8.16165e-143,0,6.10227e+06,363.006
0.00258,1.3064e-198,1,7.21344e-142,1.11022e-16,6.10227e+06,363.006
0.0026,2.07816e-197,1,6.33755e-141,1.11022e-16,6.10227e+06,363.006
0.00262,3.28613e-196,1,5.5349e-140,2.22045e-16,6.10227e+06,363.006
0.00264,5.16522e-195,1,4.80512e-139,0,6.10227e+06,363.006
0.00266,8.07019e-194,1,4.14668e-138,0,6.10227e+06,363.006
0.00268,1.25332e-192,1,3.55709e-137,0,6.10227e+06,363.006
0.0027,1.93472e-191,1,3.03307e-136,1.11022e-16,6.10227e+06,363.006
0.00272,2.96855e-190,1,2.57076e-135,0,6.10227e+06,363.006
0.00274,4.52723e-189,1,2.16583e-134,4.44089e-16,6.10227e+06,363.006
0.00276,6.86243e-188,1,1.81372e-133,1.11022e-16,6.10227e+06,363.007
0.00278,1.03388e-186,1,1.50971e-132,1.11022e-16,6.10227e+06,363.007
0.0028,1.54812e-185,1,1.24908e-131,1.11022e-16,6.10227e+06,363.007
0.00282,2.30396e-184,1,1.02721e-130,2.22045e-16,6.10227e+06,363.007
0.00284,3.40777e-183,1,8.39632e-130,0,6.10227e+06,363.007
0.00286,5.00937e-182,1,6.82153e-129,0,6.10227e+06,363.007
0.00288,7.31825e-181,1,5.50847e-128,0,6.10227e+06,363.007
0.0029,1.06251e-179,1,4.42113e-127,0,6.10227e+06,363.007
0.00292,1.53305e-178,1,3.52682e-126,0,6.10227e+06,363.007
0.00294,2.19819e-177,1,2.79626e-125,1.11022e-16,6.10227e+06,363.007
0.00296,3.13221e-176,1,2.2035e-124,0,6.10227e+06,363.007
0.00298,4.43513e-175,1,1.72577e-123,0,6.10227e+06,363.007
0.003,6.24056e-174,1,1.34333e-122,1.11022e-16,6.10227e+06,363.008
0.00302,8.72554e-173,1,1.03923e-121,0,6.10227e+06,363.008
0.00304,1.21229e-171,1,7.99023e-121,3.33067e-16,6.10227e+06,363.008
0.00306,1.6736e-170,1,6.10558e-120,0,6.10227e+06,363.008
0.00308,2.29574e-169,1,4.63668e-119,2.22045e-16,6.10227e+06,363.008
0.0031,3.12904e-168,1,3.49943e-118,1.11022e-16,6.10227e+06,363.008
0.00312,4.23745e-167,1,2.62477e-117,3.33067e-16,6.10227e+06,363.008
0.00314,5.70157e-166,1,1.95652e-116,3.33067e-16,6.10227e+06,363.008
0.00316,7.62204e-165,1,1.44935e-115,2.22045e-16,6.10227e+06,363.008
0.00318,1.01234e-163,1,1.06697e-114,1.22125e-15,6.10227e+06,363.008
0.0032,1.33581e-162,1,7.80582e-114,7.77156e-16,6.10227e+06,363.008
0.00322,1.75115e-161,1,5.67499e-113,3.33067e-16,6.10227e+06,363.009
0.00324,2.28058e-160,1,4.10005e-112,4.44089e-16,6.10227e+06,363.009
0.00326,2.95056e-159,1,2.94364e-111,1.11022e-15,6.10227e+06,363.009
0.00328,3.79218e-158,1,2.10014e-110,1.44329e-15,6.10227e+06,363.009
0.0033,4.84158e-157,1,1.48892e-109,1.44329e-15,6.10227e+06,363.009
0.00332,6.14028e-156,1,1.04895e-108,1.11022e-15,6.10227e+06,363.009
0.00334,7.73538e-155,1,7.3433e-108,5.55112e-16,6.10227e+06,363.009
0.00336,9.67957e-154,1,5.10828e-107,0,6.10227e+06,363.009
0.00338,1.2031e-152,1,3.53103e-106,3.33067e-16,6.10227e+06,363.009
0.0034,1.48526e-151,1,2.42531e-105,6.66134e-16,6.10227e+06,363.009
0.00342,1.82117e-150,1,1.65526e-104,7.77156e-16,6.10227e+06,363.01
0.00344,2.21787e-149,1,1.12251e-103,7.77156e-16,6.10227e+06,363.01
0.00346,2.68251e-148,1,7.56383e-103,1.33227e-15,6.10227e+06,363.01
0.00348,3.22225e-147,1,5.06418e-102,1.22125e-15,6.10227e+06,363.01
0.0035,3.84394e-146,1,3.36892e-101,7.77156e-16,6.10227e+06,363.01
0.00352,4.55386e-145,1,2.22679e-100,6.66134e-16,6.10227e+06,363.01
0.00354,5.35745e-144,1,1.46242e-99,5.55112e-16,6.10227e+06,363.01
0.00356,6.2589e-143,1,9.54248e-99,5.55112e-16,6.10227e+06,363.01
0.00358,7.26087e-142,1,6.18648e-98,1.11022e-15,6.10227e+06,363.01
0.0036,8.36403e-141,1,3.98486e-97,6.66134e-16,6.10227e+06,363.011
0.00362,9.56681e-140,1,2.55014e-96,5.55112e-16,6.10227e+06,363.011
0.00364,1.0865e-138,1,1.62141e-95,6.66134e-16,6.10227e+06,363.011
0.00366,1.22516e-137,1,1.02422e-94,2.22045e-16,6.10227e+06,363.011
0.00368,1.37165e-136,1,6.42773e-94,5.55112e-16,6.10227e+06,363.011
0.0037,1.52463e-135,1,4.00759e-93,3.33067e-16,6.10227e+06,363.011
0.00372,1.68246e-134,1,2.48236e-92,1.11022e-16,6.10227e+06,363.011
0.00374,1.84321e-133,1,1.52755e-91,5.55112e-16,6.10227e+06,363.011
0.00376,2.00465e-132,1,9.33833e-91,6.66134e-16,6.10227e+06,363.011
0.00378,2.16432e-131,1,5.6713e-90,4.44089e-16,6.10227e+06,363.012
0.0038,2.3196e-130,1,3.42159e-89,8.88178e-16,6.10227e+06,363.012
0.00382,2.46774e-129,1,2.0507e-88,1.11022e-15,6.10227e+06,363.012
0.00384,2.60595e-128,1,1.22095e-87,1.11022e-15,6.10227e+06,363.012
0.00386,2.73149e-127,1,7.22116e-87,9.99201e-16,6.10227e+06,363.012
0.00388,2.84177e-126,1,4.24256e-86,2.22045e-16,6.10227e+06,363.012
0.0039,2.93439e-125,1,2.47601e-85,4.44089e-16,6.10227e+06,363.012
0.00392,3.00729e-124,1,1.43541e-84,0,6.10227e+06,363.012
0.00394,3.05876e-123,1,8.26594e-84,1.22125e-15,6.10227e+06,363.013
0.00396,3.08757e-122,1,4.72819e-83,1.22125e-15,6.10227e+06,363.013
0.00398,3.09297e-121,1,2.68645e-82,1.55431e-15,6.10227e+06,363.013
0.004,3.07473e-120,1,1.51613e-81,1.88738e-15,6.10227e+06,363.013
0.00402,3.03319e-119,1,8.49891e-81,1.77636e-15,6.10227e+06,363.013
0.00404,2.96919e-118,1,4.73208e-80,1.11022e-15,6.10227e+06,363.013
0.00406,2.8841e-117,1,2.61697e-79,2.22045e-16,6.10227e+06,363.013
0.00408,2.77972e-116,1,1.43745e-78,7.77156e-16,6.10227e+06,363.014
0.0041,2.65827e-115,1,7.84213e-78,7.77156e-16,6.10227e+06,363.014
0.00412,8.19635e-115,1,1.82702e-77,1.55431e-15,6.10227e+06,363.014
0.00414,2.37442e-113,1,2.28676e-76,1.11022e-15,6.10227e+06,363.014
0.00416,2.21765e-112,1,1.22224e-75,1.66533e-15,6.10227e+06,363.014
0.00418,2.05485e-111,1,6.48796e-75,1.44329e-15,6.10227e+06,363.014
0.0042,1.88888e-110,1,3.42037e-74,1.9984e-15,6.10227e+06,363.014
0.00422,1.72249e-109,1,1.79079e-73,2.10942e-15,6.10227e+06,363.015
0.00424,1.55819e-108,1,9.31139e-73,3.44169e-15,6.10227e+06,363.015
0.00426,1.39824e-107,1,4.80814e-72,3.55271e-15,6.10227e+06,363.015
0.00428,1.24459e-106,1,2.46562e-71,2.55351e-15,6.10227e+06,363.015
0.0043,1.09887e-105,1,1.25561e-70,2.77556e-15,6.10227e+06,363.015
0.00432,9.62328e-105,1,6.34972e-70,2.88658e-15,6.10227e+06,363.015
0.00434,8.35883e-104,1,3.18875e-69,1.88738e-15,6.10227e+06,363.015
0.00436,7.20112e-103,1,1.59018e-68,1.66533e-15,6.10227e+06,363.016
0.00438,6.15281e-102,1,7.8745e-68,1.88738e-15,6.10227e+06,363.016
0.0044,5.21378e-101,1,3.87209e-67,1.11022e-15,6.10227e+06,363.016
0.00442,4.38151e-100,1,1.89063e-66,7.77156e-16,6.10227e+06,363.016
0.00444,3.65153e-99,1,9.16637e-66,0,6.10227e+06,363.016
0.00446,1.05085e-98,1,2.01298e-65,3.33067e-16,6.10227e+06,363.016
0.00448,2.47323e-97,1,2.10933e-64,5.55112e-16,6.10227e+06,363.017
0.0045,2.0099e-96,1,1.00112e-63,9.99201e-16,6.10227e+06,363.017
0.00452,1.61962e-95,1,4.7177e-63,9.99201e-16,6.10227e+06,363.017
0.00454,1.2941e-94,1,2.20734e-62,1.11022e-15,6.10227e+06,363.017
0.00456,1.02523e-93,1,1.0254e-61,9.99201e-16,6.10227e+06,363.017
0.00458,8.05316e-93,1,4.72936e-61,7.77156e-16,6.10227e+06,363.017
0.0046,6.27172e-92,1,2.16561e-60,3.33067e-16,6.10227e+06,363.018
0.00462,4.84251e-91,1,9.84522e-60,6.66134e-16,6.10227e+06,363.018
0.00464,3.70686e-90,1,4.44352e-59,5.55112e-16,6.10227e+06,363.018
0.00466,2.81306e-89,1,1.99104e-58,8.88178e-16,6.10227e+06,363.018
0.00468,2.11631e-88,1,8.85671e-58,6.66134e-16,6.10227e+06,363.018
0.0047,1.5783e-87,1,3.91111e-57,8.88178e-16,6.10227e+06,363.018
0.00472,1.16682e-86,1,1.71457e-56,5.55112e-16,6.10227e+06,363.019
0.00474,8.5508e-86,1,7.46153e-56,2.22045e-16,6.10227e+06,363.019
0.00476,6.21135e-85,1,3.22338e-55,6.66134e-16,6.10227e+06,363.019
0.00478,4.47228e-84,1,1.38228e-54,8.88178e-16,6.10227e+06,363.019
0.0048,3.19172e-83,1,5.88406e-54,4.44089e-16,6.10227e+06,363.019
0.00482,2.25767e-82,1,2.48624e-53,1.22125e-15,6.10227e+06,363.02
0.00484,1.5828e-81,1,1.04277e-52,1.44329e-15,6.10227e+06,363.02
0.00486,1.09978e-80,1,4.34112e-52,1.22125e-15,6.10227e+06,363.02
0.00488,7.57341e-80,1,1.79381e-51,1.11022e-15,6.10227e+06,363.02
0.0049,5.16857e-79,1,7.35708e-51,2.22045e-16,6.10227e+06,363.02
0.00492,3.49567e-78,1,2.99487e-50,2.22045e-16,6.10227e+06,363.021
0.00494,2.34294e-77,1,1.21e-49,4.44089e-16,6.10227e+06,363.021
0.00496,1.55615e-76,1,4.85201e-49,4.44089e-16,6.10227e+06,363.021
0.00498,1.02421e-75,1,1.93097e-48,1.11022e-16,6.10227e+06,363.021
0.005,6.67981e-75,1,7.62674e-48,6.66134e-16,6.10227e+06,363.021
0.00502,4.31683e-74,1,2.98953e-47,1.11022e-16,6.10227e+06,363.022
0.00504,2.76427e-73,1,1.16294e-46,0,6.10227e+06,363.022
0.00506,1.75388e-72,1,4.48949e-46,0,6.10227e+06,363.022
0.00508,1.10259e-71,1,1.71993e-45,2.22045e-16,6.10227e+06,363.022
0.0051,6.86773e-71,1,6.53863e-45,0,6.10227e+06,363.022
0.00512,1.70806e-70,1,1.27122e-44,0,6.10227e+06,363.022
0.00514,2.59132e-69,1,9.23416e-44,8.88178e-16,6.10227e+06,363.023
0.00516,1.56968e-68,1,3.43014e-43,1.11022e-15,6.10227e+06,363.023
0.00518,9.41991e-68,1,1.26431e-42,1.66533e-15,6.10227e+06,363.023
0.0052,5.60038e-67,1,4.62396e-42,1.44329e-15,6.10227e+06,363.023
0.00522,3.29849e-66,1,1.67796e-41,8.88178e-16,6.10227e+06,363.024
0.00524,1.92455e-65,1,6.04154e-41,0,6.10227e+06,363.024
0.00526,1.11239e-64,1,2.15825e-40,1.11022e-16,6.10227e+06,363.024
0.00528,6.36916e-64,1,7.64953e-40,0,6.10227e+06,363.024
0.0053,3.61245e-63,1,2.6899e-39,0,6.10227e+06,363.025
0.00532,2.02959e-62,1,9.3842e-39,5.55112e-16,6.10227e+06,363.025
0.00534,1.12952e-61,1,3.24793e-38,5.55112e-16,6.10227e+06,363.025
0.00536,6.22661e-61,1,1.1152e-37,0,6.10227e+06,363.025
0.00538,3.39998e-60,1,3.79864e-37,2.22045e-16,6.10227e+06,363.025
0.0054,1.83891e-59,1,1.28358e-36,0,6.10227e+06,363.026
0.00542,9.85143e-59,1,4.30251e-36,2.22045e-16,6.10227e+06,363.026
0.00544,5.22743e-58,1,1.4306e-35,2.22045e-16,6.10227e+06,363.026
0.00546,2.7474e-57,1,4.71847e-35,1.11022e-16,6.10227e+06,363.026
0.00548,1.4302e-56,1,1.54369e-34,0,6.10227e+06,363.027
0.0055,7.37413e-56,1,5.00935e-34,0,6.10227e+06,363.027
0.00552,3.76582e-55,1,1.61234e-33,4.44089e-16,6.10227e+06,363.027
0.00554,1.90476e-54,1,5.14726e-33,3.33067e-16,6.10227e+06,363.027
0.00556,9.54232e-54,1,1.62977e-32,0,6.10227e+06,363.028
0.00558,4.73475e-53,1,5.11795e-32,0,6.10227e+06,363.028
0.0056,2.32686e-52,1,1.59395e-31,5.55112e-16,6.10227e+06,363.028
0.00562,1.1326e-51,1,4.92325e-31,7.77156e-16,6.10227e+06,363.028
0.00564,5.46024e-51,1,1.50805e-30,0,6.10227e+06,363.029
0.00566,2.60725e-50,1,4.58091e-30,3.33067e-16,6.10227e+06,363.029
0.00568,1.23308e-49,1,1.37991e-29,0,6.10227e+06,363.029
0.0057,5.77614e-49,1,4.12196e-29,1.11022e-16,6.10227e+06,363.029
0.00572,2.67997e-48,1,1.22094e-28,0,6.10227e+06,363.03
0.00574,1.23161e-47,1,3.58601e-28,1.11022e-16,6.10227e+06,363.03
0.00576,5.60624e-47,1,1.04435e-27,8.88178e-16,6.10227e+06,363.03
0.00578,2.52775e-46,1,3.01565e-27,1.9984e-15,6.10227e+06,363.03
0.0058,1.12893e-45,1,8.63392e-27,7.77156e-16,6.10227e+06,363.031
0.00582,4.99436e-45,1,2.45083e-26,8.88178e-16,6.10227e+06,363.031
0.00584,2.18868e-44,1,6.8974e-26,1.11022e-15,6.10227e+06,363.031
0.00586,9.50133e-44,1,1.92447e-25,1.33227e-15,6.10227e+06,363.031
0.00588,4.086e-43,1,5.32325e-25,1.9984e-15,6.10227e+06,363.032
0.0059,1.74075e-42,1,1.45972e-24,1.88738e-15,6.10227e+06,363.032
0.00592,7.347e-42,1,3.96808e-24,1.55431e-15,6.10227e+06,363.032
0.00594,3.0721e-41,1,1.06928e-23,1.44329e-15,6.10227e+06,363.032
0.00596,1.2727e-40,1,2.85623e-23,5.55112e-16,6.10227e+06,363.033
0.00598,5.22393e-40,1,7.56259e-23,8.88178e-16,6.10227e+06,363.033
0.006,2.12455e-39,1,1.98477e-22,1.33227e-15,6.10227e+06,363.033
0.00602,8.56151e-39,1,5.16298e-22,1.22125e-15,6.10227e+06,363.033
0.00604,3.41875e-38,1,1.33115e-21,8.88178e-16,6.10227e+06,363.034
0.00606,1.3528e-37,1,3.40154e-21,1.11022e-15,6.10227e+06,363.034
0.00608,5.30482e-37,1,8.61454e-21,7.77156e-16,6.10227e+06,363.034
0.0061,2.06156e-36,1,2.16214e-20,1.11022e-15,6.10227e+06,363.035
0.00612,7.94019e-36,1,5.37796e-20,6.66134e-16,6.10227e+06,363.035
0.00614,3.03106e-35,1,1.32562e-19,3.33067e-16,6.10227e+06,363.035
0.00616,1.14685e-34,1,3.23795e-19,4.44089e-16,6.10227e+06,363.035
0.00618,4.30116e-34,1,7.8372e-19,1.22125e-15,6.10227e+06,363.036
0.0062,1.59902e-33,1,1.87964e-18,1.44329e-15,6.10227e+06,363.036
0.00622,5.89292e-33,1,4.46678e-18,2.33147e-15,6.10227e+06,363.036
0.00624,2.15295e-32,1,1.05173e-17,1.55431e-15,6.10227e+06,363.037
0.00626,7.79792e-32,1,2.45354e-17,9.99201e-16,6.10227e+06,363.037
0.00628,2.80017e-31,1,5.67072e-17,5.55112e-16,6.10227e+06,363.037
0.0063,9.96928e-31,1,1.29844e-16,6.66134e-16,6.10227e+06,363.037
0.00632,3.51909e-30,1,2.94527e-16,1.88738e-15,6.10227e+06,363.038
0.00634,1.23167e-29,1,6.61802e-16,5.21805e-15,6.10227e+06,363.038
0.00636,4.27427e-29,1,1.47301e-15,1.03251e-14,6.10227e+06,363.038
0.00638,1.47075e-28,1,3.24735e-15,2.28706e-14,6.10227e+06,363.039
0.0064,5.01794e-28,1,7.09042e-15,4.84057e-14,6.10227e+06,363.039
0.00642,1.69753e-27,1,1.5332e-14,1.02585e-13,6.10227e+06,363.039
0.00644,5.69394e-27,1,3.28299e-14,2.16827e-13,6.10227e+06,363.039
0.00646,1.89363e-26,1,6.96046e-14,4.51417e-13,6.10227e+06,363.04
0.00648,6.24384e-26,1,1.46099e-13,9.28591e-13,6.10227e+06,363.04
0.0065,2.04109e-25,1,3.03552e-13,1.89049e-12,6.10227e+06,363.04
0.00652,6.61454e-25,1,6.2419e-13,3.80784e-12,6.10227e+06,363.041
0.00654,2.12489e-24,1,1.27e-12,7.59137e-12,6.10227e+06,363.041
0.00656,6.76609e-24,1,2.5561e-12,1.49694e-11,6.10227e+06,363.041
0.00658,2.13533e-23,1,5.08755e-12,2.92001e-11,6.10227e+06,363.042
0.0066,6.67842e-23,1,1.00099e-11,5.63174e-11,6.10227e+06,363.042
0.00662,2.06975e-22,1,1.94604e-11,1.07362e-10,6.10227e+06,363.042
0.00664,6.35541e-22,1,3.73625e-11,2.0219e-10,6.10227e+06,363.043
0.00666,1.93329e-21,1,7.07957e-11,3.75926e-10,6.10227e+06,363.043
0.00668,5.8253e-21,1,1.32291e-10,6.89536e-10,6.10227e+06,363.043
0.0067,1.73838e-20,1,2.43559e-10,1.24664e-09,6.10227e+06,363.044
0.00672,5.13705e-20,1,4.41315e-10,2.2192e-09,6.10227e+06,363.044
0.00674,1.50301e-19,1,7.8593e-10,3.88488e-09,6.10227e+06,363.045
0.00676,4.35351e-19,1,1.37344e-09,6.67774e-09,6.10227e+06,363.046
0.00678,1.24833e-18,1,2.35059e-09,1.12504e-08,6.10227e+06,363.047
0.0068,3.54422e-18,1,3.93085e-09,1.85384e-08,6.10227e+06,363.048
0.00682,9.97193e-18,1,6.40615e-09,2.98061e-08,6.10227e+06,363.05
0.00684,2.78749e-17,1,1.01481e-08,4.66515e-08,6.10227e+06,363.052
0.00686,7.79581e-17,1,1.56033e-08,7.09988e-08,6.10227e+06,363.054
0.00688,2.22082e-16,1,2.33459e-08,1.05353e-07,6.10227e+06,363.058
0.0069,6.70483e-16,1,3.44049e-08,1.54227e-07,6.10227e+06,363.063
0.00692,2.25242e-15,1,5.10405e-08,2.27417e-07,6.10227e+06,363.07
0.00694,8.28645e-15,1,7.70403e-08,3.41142e-07,6.10227e+06,363.08
0.00696,3.12592e-14,0.999999,1.17655e-07,5.177e-07,6.10227e+06,363.095
0.00698,1.16374e-13,0.999999,1.80828e-07,7.90624e-07,6.10227e+06,363.116
0.007,4.22234e-13,0.999999,2.79067e-07,1.21241e-06,6.10227e+06,363.147
0.00702,1.4877e-12,0.999998,4.32021e-07,1.86505e-06,6.10227e+06,363.191
0.00704,5.08478e-12,0.999996,6.70485e-07,2.87627e-06,6.10227e+06,363.254
0.00706,1.68511e-11,0.999995,1.04267e-06,4.44488e-06,6.10227e+06,363.345
0.00708,5.41323e-11,0.999991,1.62403e-06,6.8801e-06,6.10227e+06,363.475
0.0071,1.68513e-10,0.999987,2.53254e-06,1.06626e-05,6.10227e+06,363.659
0.00712,5.0819e-10,0.99998,3.95255e-06,1.65389e-05,6.10227e+06,363.919
0.00714,1.48416e-09,0.999968,6.17178e-06,2.56666e-05,6.10227e+06,364.284
0.00716,4.19574e-09,0.999951,9.63849e-06,3.9837e-05,6.10227e+06,364.793
0.00718,1.14761e-08,0.999923,1.50493e-05,6.18134e-05,6.10227e+06,365.495
0.0072,3.03512e-08,0.999881,2.34825e-05,9.58374e-05,6.10227e+06,366.458
0.00722,7.7561e-08,0.999815,3.65979e-05,0.000148377,6.10227e+06,367.762
0.00724,1.91355e-07,0.999714,5.69288e-05,0.0002292,6.10227e+06,369.509
0.00726,4.55364e-07,0.999558,8.82988e-05,0.000352878,6.10227e+06,371.82
0.00728,1.04413e-06,0.999322,0.000136392,0.000540796,6.10227e+06,374.832
0.0073,2.30448e-06,0.998964,0.000209499,0.000823711,6.10227e+06,378.698
0.00732,4.89056e-06,0.998431,0.000319433,0.0012448,6.10227e+06,383.574
0.00734,9.97064e-06,0.997644,0.000482571,0.00186303,6.10227e+06,389.612
0.00736,1.95155e-05,0.996503,0.00072093,0.00275639,6.10227e+06,396.946
0.00738,3.66606e-05,0.994875,0.00106314,0.00402476,6.10227e+06,405.68
0.0074,6.61071e-05,0.992597,0.00154521,0.00579169,6.10227e+06,415.877
0.00742,0.000114502,0.98947,0.00221088,0.00820504,6.10227e+06,427.562
0.00744,0.000190726,0.985261,0.00311175,0.0114365,6.10227e+06,440.717
0.00746,0.000306022,0.979707,0.00430701,0.0156802,6.10227e+06,455.293
0.00748,0.000473939,0.972512,0.00586316,0.021151,6.10227e+06,471.223
0.0075,0.000710106,0.963353,0.00785362,0.028083,6.10227e+06,488.425
0.00752,0.00103188,0.951881,0.0103585,0.0367283,6.10227e+06,506.815
0.00754,0.00145791,0.937722,0.0134646,0.0473558,6.10227e+06,526.308
0.00756,0.00200775,0.920478,0.0172647,0.0602497,6.10227e+06,546.816
0.00758,0.00270139,0.899735,0.0218568,0.0757065,6.10227e+06,568.244
0.0076,0.00355885,0.87507,0.0273428,0.0940285,6.10227e+06,590.477
0.00762,0.00459957,0.846064,0.0338239,0.115512,6.10227e+06,613.373
0.00764,0.00584157,0.812332,0.0413955,0.140431,6.10227e+06,636.742
0.00766,0.00730023,0.773559,0.0501372,0.169004,6.10227e+06,660.341
0.00768,0.00898636,0.729553,0.0601001,0.201361,6.10227e+06,683.863
0.0077,0.0109037,0.680316,0.0712894,0.237491,6.10227e+06,706.938
0.00772,0.0130459,0.626125,0.0836445,0.277185,6.10227e+06,729.153
0.00774,0.0153931,0.567607,0.0970194,0.319981,6.10227e+06,750.081
0.00776,0.0179092,0.505798,0.111168,0.365124,6.10227e+06,769.336
0.00778,0.0205411,0.442151,0.125743,0.411564,6.10227e+06,786.621
0.0078,0.0232207,0.378462,0.140314,0.458003,6.10227e+06,801.782
0.00782,0.0258702,0.316712,0.154405,0.503013,6.10227e+06,814.828
0.00784,0.0284112,0.258833,0.167557,0.545199,6.10227e+06,825.917
0.00786,0.0296188,0.231873,0.173656,0.564853,6.10227e+06,830.808
0.00788,0.0329087,0.160713,0.189632,0.616747,6.10227e+06,843.337
0.0079,0.0338797,0.140517,0.194121,0.631482,6.10227e+06,846.926
0.00792,0.0363942,0.0906581,0.205074,0.667873,6.10227e+06,856.385
0.00794,0.0377499,0.0657843,0.210435,0.686031,6.10227e+06,861.837
0.00796,0.0388751,0.0466982,0.214468,0.699958,6.10227e+06,866.752
0.00798,0.0398003,0.0324522,0.217406,0.710341,6.10227e+06,871.198
0.008,0.0405577,0.022091,0.219475,0.717876,6.10227e+06,875.215
0.00802,0.0411777,0.0147374,0.220883,0.723202,6.10227e+06,878.824
0.00804,0.0416872,0.0096387,0.221802,0.726872,6.10227e+06,882.042
0.00806,0.0421086,0.0061821,0.222374,0.729335,6.10227e+06,884.885
0.00808,0.0424601,0.00388948,0.222708,0.730943,6.10227e+06,887.374
0.0081,0.0427558,0.00240115,0.222882,0.731961,6.10227e+06,889.53
0.00812,0.0430058,0.00146072,0.222956,0.732578,6.10227e+06,891.377
0.00814,0.0432152,0.000896314,0.222966,0.732922,6.10227e+06,892.919
0.00816,0.0434001,0.000520427,0.222949,0.733131,6.10227e+06,894.255
0.00818,0.0435585,0.000297298,0.222913,0.733231,6.10227e+06,895.37
0.0082,0.0436289,0.000223706,0.222892,0.733255,6.10227e+06,895.853
0.00822,0.0438085,9.59503e-05,0.222828,0.733267,6.10227e+06,897.036
0.00824,0.0438606,7.05661e-05,0.222808,0.733261,6.10227e+06,897.364
0.00826,0.0439942,2.71898e-05,0.222753,0.733225,6.10227e+06,898.166
0.00828,0.0440667,1.40457e-05,0.222723,0.733196,6.10227e+06,898.573
0.0083,0.0441277,7.11531e-06,0.222698,0.733168,6.10227e+06,898.897
0.00832,0.0441789,3.53406e-06,0.222677,0.733141,6.10227e+06,899.154
0.00834,0.0442215,1.72078e-06,0.22266,0.733117,6.10227e+06,899.356
0.00836,0.0442567,8.21346e-07,0.222647,0.733096,6.10227e+06,899.514
0.00838,0.0442857,3.84296e-07,0.222636,0.733078,6.10227e+06,899.636
0.0084,0.0443094,1.76252e-07,0.222627,0.733063,6.10227e+06,899.73
0.00842,0.0443286,7.92367e-08,0.222621,0.73305,6.10227e+06,899.801
0.00844,0.044344,3.49166e-08,0.222616,0.73304,6.10227e+06,899.855
0.00846,0.0443564,1.50815e-08,0.222612,0.733032,6.10227e+06,899.896
0.00848,0.0443663,6.38499e-09,0.222609,0.733025,6.10227e+06,899.927
0.0085,0.0443741,2.64958e-09,0.222607,0.733019,6.10227e+06,899.949
0.00852,0.0443802,1.07768e-09,0.222605,0.733015,6.10227e+06,899.966
0.00854,0.0443827,6.8216e-10,0.222604,0.733013,6.10227e+06,899.973
0.00856,0.0443886,1.67889e-10,0.222603,0.733009,6.10227e+06,899.987
0.00858,0.0443901,1.04164e-10,0.222602,0.733008,6.10227e+06,899.99
0.0086,0.0443936,2.41419e-11,0.222601,0.733005,6.10227e+06,899.997
0.00862,0.0443953,8.88409e-12,0.222601,0.733004,6.10227e+06,900
0.00864,0.0443965,3.20464e-12,0.222601,0.733003,6.10227e+06,900.003
0.00866,0.0443975,1.13316e-12,0.222601,0.733002,6.10227e+06,900.004
0.00868,0.0443981,3.92828e-13,0.2226,0.733001,6.10227e+06,900.005
0.0087,0.0443987,1.33555e-13,0.2226,0.733001,6.10227e+06,900.005
0.00872,0.044399,4.45766e-14,0.2226,0.733001,6.10227e+06,900.006
0.00874,0.0443993,1.46506e-14,0.2226,0.733001,6.10227e+06,900.006
0.00876,0.0443995,4.78415e-15,0.2226,0.733,6.10227e+06,900.006
0.00878,0.0443997,1.62927e-15,0.2226,0.733,6.10227e+06,900.006
0.0088,0.0443998,5.92779e-16,0.2226,0.733,6.10227e+06,900.006
0.00882,0.0443998,2.1023e-16,0.2226,0.733,6.10227e+06,900.006
0.00884,0.0443999,7.57085e-17,0.2226,0.733,6.10227e+06,900.006
0.00886,0.0443999,2.73089e-17,0.2226,0.733,6.10227e+06,900.006
0.00888,0.0443999,1.63703e-17,0.2226,0.733,6.10227e+06,900.005
0.0089,0.0444,3.47825e-18,0.2226,0.733,6.10227e+06,900.005
0.00892,0.0444,2.0641e-18,0.2226,0.733,6.10227e+06,900.005
0.00894,0.0444,4.23408e-19,0.2226,0.733,6.10227e+06,900.005
0.00896,0.0444,1.44935e-19,0.2226,0.733,6.10227e+06,900.005
0.00898,0.0444,4.89803e-20,0.2226,0.733,6.10227e+06,900.005
0.009,0.0444,1.63439e-20,0.2226,0.733,6.10227e+06,900.004
0.00902,0.0444,5.38559e-21,0.2226,0.733,6.10227e+06,900.004
0.00904,0.0444,1.75268e-21,0.2226,0.733,6.10227e+06,900.004
0.00906,0.0444,5.63374e-22,0.2226,0.733,6.10227e+06,900.004
0.00908,0.0444,1.78875e-22,0.2226,0.733,6.10227e+06,900.004
0.0091,0.0444,5.61033e-23,0.2226,0.733,6.10227e+06,900.004
0.00912,0.0444,1.73838e-23,0.2226,0.733,6.10227e+06,900.004
0.00914,0.0444,5.32168e-24,0.2226,0.733,6.10227e+06,900.004
0.00916,0.0444,1.60966e-24,0.2226,0.733,6.10227e+06,900.003
0.00918,0.0444,4.81094e-25,0.2226,0.733,6.10227e+06,900.003
0.0092,0.0444,1.42092e-25,0.2226,0.733,6.10227e+06,900.003
0.00922,0.0444,7.68806e-26,0.2226,0.733,6.10227e+06,900.003
0.00924,0.0444,1.19648e-26,0.2226,0.733,6.10227e+06,900.003