x,NH3,C7H16,O2,N2,p,T
0,1.67982e-322,1,0,0,6.10255e+06,363
2e-05,0,1,0,2.22045e-16,6.10255e+06,363
4e-05,1.63042e-322,1,1.4822e-322,1.11022e-15,6.10255e+06,363
6e-05,1.58101e-322,1,1.33398e-322,6.66134e-16,6.10255e+06,363
8e-05,3.45846e-323,1,0,0,6.10255e+06,363
0.0001,0,1,1.72923e-322,1.11022e-16,6.10255e+06,363
0.00012,0,1,0,2.22045e-16,6.10255e+06,363
0.00014,0,1,0,3.33067e-16,6.10255e+06,363
0.00016,0,1,1.58101e-322,3.33067e-16,6.10255e+06,363
0.00018,0,1,0,1.11022e-16,6.10255e+06,363
0.0002,1.97626e-323,1,0,1.11022e-16,6.10255e+06,363
0.00022,2.47033e-323,1,0,9.99201e-16,6.10255e+06,363
0.00024,0,1,1.5316e-322,9.99201e-16,6.10255e+06,363
0.00026,1.38338e-322,1,0,9.99201e-16,6.10255e+06,363
0.00028,3.95253e-323,1,1.33398e-322,9.99201e-16,6.10255e+06,363
0.0003,1.28457e-322,1,0,1.44329e-15,6.10255e+06,363
0.00032,1.43279e-322,1,0,1.44329e-15,6.10255e+06,363
0.00034,2.47033e-323,1,0,1.55431e-15,6.10255e+06,363
0.00036,1.33398e-322,1,0,1.33227e-15,6.10255e+06,363
0.00038,1.97626e-323,1,0,9.99201e-16,6.10255e+06,363
0.0004,1.67982e-322,1,0,1.11022e-15,6.10255e+06,363
0.00042,0,1,1.23516e-322,1.55431e-15,6.10255e+06,363
0.00044,0,1,0,1.33227e-15,6.10255e+06,363
0.00046,0,1,1.43279e-322,1.33227e-15,6.10255e+06,363
0.00048,0,1,1.58101e-322,1.22125e-15,6.10255e+06,363
0.0005,0,1,0,1.22125e-15,6.10255e+06,363
0.00052,1.38338e-322,1,0,1.22125e-15,6.10255e+06,363
0.00054,0,1,0,1.55431e-15,6.10255e+06,363
0.00056,1.38338e-322,1,1.38338e-322,1.22125e-15,6.10255e+06,363
0.00058,0,1,0,7.77156e-16,6.10255e+06,363
0.0006,0,1,1.33398e-322,8.88178e-16,6.10255e+06,363
0.00062,0,1,3.70549e-322,1.11022e-15,6.10255e+06,363
0.00064,0,1,6.42285e-322,1.33227e-15,6.10255e+06,363
0.00066,0,1,3.31024e-322,1.11022e-15,6.10255e+06,363
0.00068,1.58101e-322,1,6.62048e-322,1.22125e-15,6.10255e+06,363
0.0007,2.47033e-323,1,3.50787e-322,1.33227e-15,6.10255e+06,363
0.00072,0,1,6.66989e-322,1.33227e-15,6.10255e+06,363
0.00074,0,1,4.5454e-322,8.88178e-16,6.10255e+06,363
0.00076,0,1,6.52167e-322,1.44329e-15,6.10255e+06,363
0.00078,0,1,8.54734e-322,2.22045e-15,6.10255e+06,363
0.0008,0,1,1.16599e-321,2.44249e-15,6.10255e+06,363
0.00082,0,1,1.15117e-321,2.10942e-15,6.10255e+06,363
0.00084,0,1,1.13141e-321,2.33147e-15,6.10255e+06,363
0.00086,0,1,1.35868e-321,1.33227e-15,6.10255e+06,363
0.00088,2.47033e-323,1,1.13141e-321,1.88738e-15,6.10255e+06,363
0.0009,0,1,1.36856e-321,9.99201e-16,6.10255e+06,363
0.00092,0,1,1.99603e-321,1.22125e-15,6.10255e+06,363
0.00094,0,1,2.50491e-321,1.55431e-15,6.10255e+06,363
0.00096,0,1,2.54444e-321,1.22125e-15,6.10255e+06,363
0.00098,0,1,2.49009e-321,1.55431e-15,6.10255e+06,363
0.001,0,1,2.50985e-321,1.11022e-15,6.10255e+06,363
0.00102,0,1,2.55926e-321,5.55112e-16,6.10255e+06,363
0.00104,0,1,2.53456e-321,1.22125e-15,6.10255e+06,363
0.00106,0,1,2.56914e-321,1.66533e-15,6.10255e+06,363
0.00108,9.88131e-324,1,2.65313e-321,1.66533e-15,6.10255e+06,363
0.0011,1.23516e-322,1,2.66301e-321,1.11022e-15,6.10255e+06,363
0.00112,1.28457e-322,1,3.07309e-321,9.99201e-16,6.10255e+06,363
0.00114,0,1,3.16696e-321,1.33227e-15,6.10255e+06,363
0.00116,1.63042e-322,1,3.16696e-321,9.99201e-16,6.10255e+06,363
0.00118,0,1,3.19166e-321,8.88178e-16,6.10255e+06,363
0.0012,0,1,3.23613e-321,1.11022e-15,6.10255e+06,363
0.00122,1.38338e-322,1,3.13732e-321,9.99201e-16,6.10255e+06,363
0.00124,0,1,3.24601e-321,1.11022e-15,6.10255e+06,363
0.00126,0,1,3.17684e-321,8.88178e-16,6.10255e+06,363
0.00128,1.5316e-322,1,3.13732e-321,9.99201e-16,6.10255e+06,363
0.0013,0,1,3.24107e-321,7.77156e-16,6.10255e+06,363
0.00132,0,1,3.11261e-321,7.77156e-16,6.10255e+06,363
0.00134,0,1,3.21143e-321,7.77156e-16,6.10255e+06,363
0.00136,0,1,3.11755e-321,6.66134e-16,6.10255e+06,363
0.00138,0,1,3.23119e-321,3.33067e-16,6.10255e+06,363
0.0014,0,1,3.32506e-321,0,6.10255e+06,363
0.00142,0,1,3.10767e-321,1.11022e-16,6.10255e+06,363
0.00144,0,1,3.1966e-321,2.22045e-16,6.10255e+06,363
0.00146,0,1,3.17684e-321,2.22045e-16,6.10255e+06,363
0.00148,1.4822e-322,1,3.21637e-321,8.88178e-16,6.10255e+06,363
0.0015,1.63042e-322,1,3.19166e-321,6.66134e-16,6.10255e+06,363
0.00152,1.4822e-322,1,3.21143e-321,1.11022e-16,6.10255e+06,363
0.00154,0,1,3.34977e-321,0,6.10255e+06,363
0.00156,0,1,3.22625e-321,0,6.10255e+06,363
0.00158,0,1,3.25095e-321,2.22045e-16,6.10255e+06,363
0.0016,1.17094e-321,1,4.04146e-321,0,6.10255e+06,363
0.00162,1.37103e-320,1,3.94264e-321,0,6.10255e+06,363
0.00164,4.38602e-319,1,6.55131e-321,2.22045e-16,6.10255e+06,363
0.00166,1.53338e-317,1,8.93962e-320,2.22045e-16,6.10255e+06,363
0.00168,5.35548e-316,1,3.06866e-318,0,6.10255e+06,363
0.0017,1.86094e-314,1,1.09286e-316,1.11022e-16,6.10255e+06,363
0.00172,6.43238e-313,1,3.87651e-315,2.22045e-16,6.10255e+06,363
0.00174,2.2116e-311,1,1.36782e-313,0,6.10255e+06,363
0.00176,7.56362e-310,1,4.80068e-312,1.11022e-16,6.10255e+06,363
0.00178,2.57298e-308,1,1.67594e-310,5.55112e-16,6.10255e+06,363
0.0018,8.70605e-307,1,5.81951e-309,7.77156e-16,6.10255e+06,363
0.00182,2.93006e-305,1,2.00994e-307,8.88178e-16,6.10255e+06,363
0.00184,9.80837e-304,1,6.90465e-306,1.11022e-15,6.10255e+06,363
0.00186,3.26569e-302,1,2.35915e-304,1.11022e-16,6.10255e+06,363
0.00188,1.08145e-300,1,8.01709e-303,5.55112e-16,6.10255e+06,363
0.0019,3.5619e-299,1,2.7097e-301,2.22045e-16,6.10255e+06,363
0.00192,1.1668e-297,1,9.10881e-300,1.11022e-16,6.10255e+06,363
0.00194,3.80143e-296,1,3.04531e-298,3.33067e-16,6.10255e+06,363
0.00196,1.23175e-294,1,1.01257e-296,7.77156e-16,6.10255e+06,363
0.00198,3.96932e-293,1,3.34836e-295,3.33067e-16,6.10255e+06,363
0.002,1.27211e-291,1,1.10116e-293,0,6.10255e+06,363
0.00202,4.05452e-290,1,3.60141e-292,0,6.10255e+06,363
0.00204,1.28515e-288,1,1.17136e-290,3.33067e-16,6.10255e+06,363
0.00206,7.22038e-288,1,6.66646e-290,3.33067e-16,6.10255e+06,363
0.00208,1.26987e-285,1,1.21867e-287,0,6.10255e+06,363
0.0021,3.95853e-284,1,3.89811e-286,0,6.10255e+06,363
0.00212,1.22711e-282,1,1.23991e-284,1.11022e-16,6.10255e+06,363
0.00214,3.78267e-281,1,3.92183e-283,0,6.10255e+06,363
0.00216,1.15951e-279,1,1.23351e-281,0,6.10255e+06,363
0.00218,3.53428e-278,1,3.85785e-280,0,6.10255e+06,363
0.0022,1.07121e-276,1,1.19975e-278,2.22045e-16,6.10255e+06,363
0.00222,3.2284e-275,1,3.70995e-277,0,6.10255e+06,363
0.00224,9.67458e-274,1,1.14071e-275,3.33067e-16,6.10255e+06,363
0.00226,2.88271e-272,1,3.48739e-274,0,6.10255e+06,363
0.00228,8.54061e-271,1,1.06009e-272,1.11022e-16,6.10255e+06,363
0.0023,2.51586e-269,1,3.20396e-271,0,6.10255e+06,363
0.00232,7.36866e-268,1,9.62793e-270,1.11022e-16,6.10255e+06,363
0.00234,2.14579e-266,1,2.87654e-268,0,6.10255e+06,363
0.00236,6.2126e-265,1,8.5446e-267,1.11022e-16,6.10255e+06,363
0.00238,1.78831e-263,1,2.52342e-265,1.11022e-16,6.10255e+06,363
0.0024,5.11782e-262,1,7.40898e-264,0,6.10255e+06,363
0.00242,1.45612e-260,1,2.16266e-262,4.44089e-16,6.10255e+06,363
0.00244,4.11875e-259,1,6.27588e-261,0,6.10255e+06,363
0.00246,1.15821e-257,1,1.81054e-259,0,6.10255e+06,363
0.00248,3.23784e-256,1,5.19253e-258,0,6.10255e+06,363
0.0025,8.99829e-255,1,1.48042e-256,0,6.10255e+06,363
0.00252,2.48596e-253,1,4.19578e-255,0,6.10255e+06,363
0.00254,6.82732e-252,1,1.18211e-253,0,6.10255e+06,363
0.00256,1.86389e-250,1,3.31065e-252,0,6.10255e+06,363
0.00258,5.05822e-249,1,9.21657e-251,2.22045e-16,6.10255e+06,363
0.0026,1.3645e-247,1,2.55046e-249,2.22045e-16,6.10255e+06,363
0.00262,3.65881e-246,1,7.01542e-248,0,6.10255e+06,363
0.00264,9.75192e-245,1,1.91808e-246,0,6.10255e+06,363
0.00266,2.58354e-243,1,5.21253e-245,0,6.10255e+06,363
0.00268,6.80312e-242,1,1.40797e-243,0,6.10255e+06,363
0.0027,1.78058e-240,1,3.77999e-242,0,6.10255e+06,363
0.00272,4.63195e-239,1,1.00863e-240,1.11022e-16,6.10255e+06,363
0.00274,1.19759e-237,1,2.67494e-239,2.22045e-16,6.10255e+06,363
0.00276,3.07745e-236,1,7.05055e-238,2.22045e-16,6.10255e+06,363
0.00278,7.85958e-235,1,1.84694e-236,6.66134e-16,6.10255e+06,363
0.0028,1.99492e-233,1,4.80835e-235,0,6.10255e+06,363
0.00282,5.03226e-232,1,1.24407e-233,2.22045e-16,6.10255e+06,363
0.00284,1.26154e-230,1,3.19879e-232,5.55112e-16,6.10255e+06,363
0.00286,3.14293e-229,1,8.17364e-231,1.11022e-16,6.10255e+06,363
0.00288,7.78129e-228,1,2.07551e-229,1.11022e-16,6.10255e+06,363
0.0029,1.91446e-226,1,5.23724e-228,2.22045e-16,6.10255e+06,363
0.00292,4.68066e-225,1,1.31324e-226,2.22045e-16,6.10255e+06,363
0.00294,1.13718e-223,1,3.27217e-225,2.22045e-16,6.10255e+06,363
0.00296,2.74537e-222,1,8.10164e-224,0,6.10255e+06,363
0.00298,6.58588e-221,1,1.99317e-222,0,6.10255e+06,363
0.003,1.56986e-219,1,4.87241e-221,0,6.10255e+06,363
0.00302,3.71819e-218,1,1.18348e-219,0,6.10255e+06,363
0.00304,8.75021e-217,1,2.85618e-218,0,6.10255e+06,363
0.00306,2.04603e-215,1,6.84872e-217,0,6.10255e+06,363
0.00308,4.75338e-214,1,1.63164e-215,0,6.10255e+06,363
0.0031,1.09719e-212,1,3.86207e-214,0,6.10255e+06,363
0.00312,2.51617e-211,1,9.08216e-213,4.44089e-16,6.10255e+06,363
0.00314,5.73282e-210,1,2.12188e-211,4.44089e-16,6.10255e+06,363
0.00316,1.29765e-208,1,4.92499e-210,1.11022e-16,6.10255e+06,363
0.00318,2.91809e-207,1,1.13562e-208,0,6.10255e+06,363
0.0032,6.519e-206,1,2.60134e-207,5.55112e-16,6.10255e+06,363
0.00322,1.44676e-204,1,5.91952e-206,3.33067e-16,6.10255e+06,363
0.00324,3.1896e-203,1,1.33811e-204,4.44089e-16,6.10255e+06,363
0.00326,6.98536e-202,1,3.00471e-203,7.77156e-16,6.10255e+06,363
0.00328,1.51966e-200,1,6.70208e-202,2.22045e-16,6.10255e+06,363
0.0033,3.28396e-199,1,1.48492e-200,7.77156e-16,6.10255e+06,363
0.00332,7.04911e-198,1,3.26794e-199,1.11022e-16,6.10255e+06,363
0.00334,1.50295e-196,1,7.14351e-198,6.66134e-16,6.10255e+06,363
0.00336,3.18289e-195,1,1.55098e-196,5.55112e-16,6.10255e+06,363
0.00338,6.69505e-194,1,3.34463e-195,1.11022e-16,6.10255e+06,363
0.0034,1.39872e-192,1,7.16354e-194,4.44089e-16,6.10255e+06,363
0.00342,2.90231e-191,1,1.52382e-192,4.44089e-16,6.10255e+06,363
0.00344,5.98109e-190,1,3.21926e-191,4.44089e-16,6.10255e+06,363
0.00346,1.22414e-188,1,6.75437e-190,2.22045e-16,6.10255e+06,363
0.00348,2.48822e-187,1,1.40737e-188,5.55112e-16,6.10255e+06,363
0.0035,5.02274e-186,1,2.91219e-187,0,6.10255e+06,363
0.00352,1.00688e-184,1,5.9842e-186,0,6.10255e+06,363
0.00354,2.0044e-183,1,1.22111e-184,7.77156e-16,6.10255e+06,363
0.00356,3.96238e-182,1,2.47435e-183,6.66134e-16,6.10255e+06,363
0.00358,7.77822e-181,1,4.97862e-182,6.66134e-16,6.10255e+06,363
0.0036,1.51616e-179,1,9.94693e-181,5.55112e-16,6.10255e+06,363
0.00362,2.93455e-178,1,1.97329e-179,5.55112e-16,6.10255e+06,363
0.00364,5.63974e-177,1,3.88691e-178,0,6.10255e+06,363
0.00366,1.07618e-175,1,7.60181e-177,3.33067e-16,6.10255e+06,363
0.00368,2.03896e-174,1,1.47611e-175,3.33067e-16,6.10255e+06,363
0.0037,3.83548e-173,1,2.84576e-174,1.11022e-15,6.10255e+06,363
0.00372,7.1632e-172,1,5.44683e-173,1.33227e-15,6.10255e+06,363
0.00374,1.32819e-170,1,1.03501e-171,9.99201e-16,6.10255e+06,363
0.00376,2.44492e-169,1,1.95249e-170,1.22125e-15,6.10255e+06,363
0.00378,4.468e-168,1,3.65651e-169,6.66134e-16,6.10255e+06,363
0.0038,8.10572e-167,1,6.79773e-168,1.55431e-15,6.10255e+06,363
0.00382,1.45979e-165,1,1.2545e-166,1.66533e-15,6.10255e+06,363
0.00384,2.60973e-164,1,2.29813e-165,9.99201e-16,6.10255e+06,363
0.00386,4.63123e-163,1,4.17893e-164,1.22125e-15,6.10255e+06,363
0.00388,8.15797e-162,1,7.54273e-163,1.22125e-15,6.10255e+06,363
0.0039,1.4264e-160,1,1.35131e-161,7.77156e-16,6.10255e+06,363
0.00392,2.47547e-159,1,2.40286e-160,9.99201e-16,6.10255e+06,363
0.00394,4.26407e-158,1,4.24073e-159,4.44089e-16,6.10255e+06,363
0.00396,7.28999e-157,1,7.42812e-158,9.99201e-16,6.10255e+06,363
0.00398,1.23695e-155,1,1.29131e-156,1.33227e-15,6.10255e+06,363
0.004,2.08301e-154,1,2.22782e-155,6.66134e-16,6.10255e+06,363
0.00402,3.48119e-153,1,3.81434e-154,3.33067e-16,6.10255e+06,363
0.00404,5.77365e-152,1,6.48089e-153,2.22045e-16,6.10255e+06,363
0.00406,9.50272e-151,1,1.09273e-151,4.44089e-16,6.10255e+06,363
0.00408,1.55205e-149,1,1.82826e-150,3.33067e-16,6.10255e+06,363
0.0041,2.51543e-148,1,3.0353e-149,1.11022e-16,6.10255e+06,363
0.00412,1.00973e-147,1,1.23316e-148,8.88178e-16,6.10255e+06,363
0.00414,6.45534e-146,1,8.17311e-147,0,6.10255e+06,363
0.00416,1.0221e-144,1,1.32551e-145,8.88178e-16,6.10255e+06,363
0.00418,1.60569e-143,1,2.13286e-144,9.99201e-16,6.10255e+06,363
0.0042,2.50274e-142,1,3.40496e-143,1.33227e-15,6.10255e+06,363
0.00422,3.87023e-141,1,5.39286e-142,8.88178e-16,6.10255e+06,363
0.00424,5.93763e-140,1,8.47362e-141,6.66134e-16,6.10255e+06,363
0.00426,9.03716e-139,1,1.32083e-139,7.77156e-16,6.10255e+06,363
0.00428,1.36452e-137,1,2.04241e-138,2.22045e-16,6.10255e+06,363
0.0043,2.04381e-136,1,3.13285e-137,1.11022e-16,6.10255e+06,363
0.00432,3.03669e-135,1,4.76676e-136,1.11022e-16,6.10255e+06,363
0.00434,4.47556e-134,1,7.19415e-135,3.33067e-16,6.10255e+06,363
0.00436,6.54284e-133,1,1.07695e-133,9.99201e-16,6.10255e+06,363
0.00438,9.48729e-132,1,1.59902e-132,9.99201e-16,6.10255e+06,363
0.0044,1.36446e-130,1,2.35473e-131,9.99201e-16,6.10255e+06,363
0.00442,1.94629e-129,1,3.4391e-130,3.33067e-16,6.10255e+06,363
0.00444,2.75338e-128,1,4.98135e-129,8.88178e-16,6.10255e+06,363
0.00446,1.0324e-127,1,1.88992e-128,1.11022e-16,6.10255e+06,363
0.00448,5.37484e-126,1,1.01927e-126,6.66134e-16,6.10255e+06,363
0.0045,7.41608e-125,1,1.4398e-125,6.66134e-16,6.10255e+06,363
0.00452,1.0147e-123,1,2.01674e-124,1.55431e-15,6.10255e+06,363
0.00454,1.37669e-122,1,2.80106e-123,1.66533e-15,6.10255e+06,363
0.00456,1.85207e-121,1,3.85746e-122,1.22125e-15,6.10255e+06,363
0.00458,2.4705e-120,1,5.26711e-121,1.22125e-15,6.10255e+06,363
0.0046,3.26739e-119,1,7.13048e-120,1.11022e-15,6.10255e+06,363
0.00462,4.28443e-118,1,9.57028e-119,1.44329e-15,6.10255e+06,363
0.00464,5.56984e-117,1,1.27342e-117,1.66533e-15,6.10255e+06,363
0.00466,7.1785e-116,1,1.67976e-116,1.22125e-15,6.10255e+06,363
0.00468,9.17171e-115,1,2.19651e-115,9.99201e-16,6.10255e+06,363
0.0047,1.16165e-113,1,2.84715e-114,1.33227e-15,6.10255e+06,363
0.00472,1.45846e-112,1,3.65818e-113,1.88738e-15,6.10255e+06,363
0.00474,1.81504e-111,1,4.65885e-112,8.88178e-16,6.10255e+06,363
0.00476,2.23891e-110,1,5.88077e-111,7.77156e-16,6.10255e+06,363
0.00478,2.73734e-109,1,7.35724e-110,4.44089e-16,6.10255e+06,363
0.0048,3.31699e-108,1,9.12226e-109,3.33067e-16,6.10255e+06,363
0.00482,3.98351e-107,1,1.12093e-107,1.11022e-16,6.10255e+06,363
0.00484,4.74107e-106,1,1.36499e-106,1.44329e-15,6.10255e+06,363
0.00486,5.59187e-105,1,1.64715e-105,1.55431e-15,6.10255e+06,363
0.00488,6.53569e-104,1,1.96957e-104,1.44329e-15,6.10255e+06,363
0.0049,7.56938e-103,1,2.3336e-103,1.22125e-15,6.10255e+06,363
0.00492,8.68651e-102,1,2.73957e-102,2.22045e-16,6.10255e+06,363
0.00494,9.87709e-101,1,3.18653e-101,2.22045e-16,6.10255e+06,363
0.00496,1.11274e-99,1,3.6721e-100,3.33067e-16,6.10255e+06,363
0.00498,1.24198e-98,1,4.19232e-99,6.66134e-16,6.10255e+06,363
0.005,1.37335e-97,1,4.74152e-98,3.33067e-16,6.10255e+06,363
0.00502,1.50442e-96,1,5.31233e-97,5.55112e-16,6.10255e+06,363
0.00504,1.63253e-95,1,5.89573e-96,1.22125e-15,6.10255e+06,363
0.00506,1.75484e-94,1,6.4812e-95,1.44329e-15,6.10255e+06,363
0.00508,1.86844e-93,1,7.05697e-94,9.99201e-16,6.10255e+06,363
0.0051,1.97045e-92,1,7.6104e-93,8.88178e-16,6.10255e+06,363
0.00512,6.37594e-92,1,2.49018e-92,8.88178e-16,6.10255e+06,363
0.00514,2.12909e-90,1,8.59768e-91,5.55112e-16,6.10255e+06,363
0.00516,2.18119e-89,1,9.00586e-90,2.22045e-16,6.10255e+06,363
0.00518,2.21289e-88,1,9.34143e-89,0,6.10255e+06,363
0.0052,2.22315e-87,1,9.59456e-88,2.22045e-16,6.10255e+06,363
0.00522,2.21157e-86,1,9.7575e-87,3.33067e-16,6.10255e+06,363
0.00524,2.17838e-85,1,9.82502e-86,0,6.10255e+06,363
0.00526,2.12446e-84,1,9.79463e-85,5.55112e-16,6.10255e+06,363
0.00528,2.05127e-83,1,9.66676e-84,6.66134e-16,6.10255e+06,363
0.0053,1.96081e-82,1,9.44474e-83,8.88178e-16,6.10255e+06,363
0.00532,1.85552e-81,1,9.13468e-82,2.22045e-16,6.10255e+06,363
0.00534,1.73816e-80,1,8.74519e-81,1.11022e-16,6.10255e+06,363
0.00536,1.6117e-79,1,8.28696e-80,0,6.10255e+06,363
0.00538,1.47921e-78,1,7.77228e-79,5.55112e-16,6.10255e+06,363
0.0054,1.3437e-77,1,7.2145e-78,5.55112e-16,6.10255e+06,363
0.00542,1.20804e-76,1,6.62743e-77,1.11022e-16,6.10255e+06,363
0.00544,1.07483e-75,1,6.02481e-76,4.44089e-16,6.10255e+06,363
0.00546,9.46366e-75,1,5.4197e-75,1.11022e-16,6.10255e+06,363
0.00548,8.24541e-74,1,4.82413e-74,6.66134e-16,6.10255e+06,363
0.0055,7.10848e-73,1,4.24864e-73,0,6.10255e+06,363
0.00552,6.06357e-72,1,3.70206e-72,3.33067e-16,6.10255e+06,363
0.00554,5.11733e-71,1,3.19136e-71,1.11022e-15,6.10255e+06,363
0.00556,4.27265e-70,1,2.72158e-70,8.88178e-16,6.10255e+06,363
0.00558,3.5291e-69,1,2.29591e-69,0,6.10255e+06,363
0.0056,2.8835e-68,1,1.91581e-68,0,6.10255e+06,363
0.00562,2.33045e-67,1,1.5812e-67,1.11022e-16,6.10255e+06,363
0.00564,1.86293e-66,1,1.29073e-66,3.33067e-16,6.10255e+06,363
0.00566,1.47288e-65,1,1.042e-65,1.22125e-15,6.10255e+06,363
0.00568,1.15165e-64,1,8.31873e-65,1.55431e-15,6.10255e+06,363
0.0057,8.90502e-64,1,6.56719e-64,1.22125e-15,6.10255e+06,363
0.00572,6.80896e-63,1,5.12633e-63,1.22125e-15,6.10255e+06,363
0.00574,5.14792e-62,1,3.9565e-62,6.66134e-16,6.10255e+06,363
0.00576,3.84822e-61,1,3.01901e-61,3.33067e-16,6.10255e+06,363
0.00578,2.84405e-60,1,2.2774e-60,6.66134e-16,6.10255e+06,363
0.0058,2.07795e-59,1,1.69826e-59,1.55431e-15,6.10255e+06,363
0.00582,1.50081e-58,1,1.2518e-58,9.99201e-16,6.10255e+06,363
0.00584,1.07147e-57,1,9.1201e-58,1.11022e-15,6.10255e+06,363
0.00586,7.56086e-57,1,6.56702e-57,7.77156e-16,6.10255e+06,363
0.00588,5.27309e-56,1,4.67317e-56,1.22125e-15,6.10255e+06,363
0.0059,3.63441e-55,1,3.28624e-55,4.44089e-16,6.10255e+06,363
0.00592,2.47541e-54,1,2.28349e-54,9.99201e-16,6.10255e+06,363
0.00594,1.666e-53,1,1.56777e-53,1.22125e-15,6.10255e+06,363
0.00596,1.10786e-52,1,1.06345e-52,1.33227e-15,6.10255e+06,363
0.00598,7.27858e-52,1,7.12639e-52,5.55112e-16,6.10255e+06,363
0.006,4.7242e-51,1,4.71747e-51,7.77156e-16,6.10255e+06,363
0.00602,3.02898e-50,1,3.08463e-50,1.88738e-15,6.10255e+06,363
0.00604,1.91832e-49,1,1.99214e-49,1.55431e-15,6.10255e+06,363
0.00606,1.19997e-48,1,1.27064e-48,8.88178e-16,6.10255e+06,363
0.00608,7.4132e-48,1,8.00357e-48,5.55112e-16,6.10255e+06,363
0.0061,4.52271e-47,1,4.97811e-47,0,6.10255e+06,363
0.00612,2.72467e-46,1,3.05726e-46,5.55112e-16,6.10255e+06,363
0.00614,1.62076e-45,1,1.85375e-45,1.11022e-15,6.10255e+06,363
0.00616,9.51868e-45,1,1.10966e-44,0,6.10255e+06,363
0.00618,5.51891e-44,1,6.55705e-44,0,6.10255e+06,363
0.0062,3.15874e-43,1,3.82449e-43,0,6.10255e+06,363
0.00622,1.78453e-42,1,2.20165e-42,0,6.10255e+06,363
0.00624,9.95044e-42,1,1.25083e-41,0,6.10255e+06,363
0.00626,5.47566e-41,1,7.01262e-41,0,6.10255e+06,363
0.00628,2.97349e-40,1,3.87936e-40,0,6.10255e+06,363
0.0063,1.59329e-39,1,2.11738e-39,3.33067e-16,6.10255e+06,363
0.00632,8.42332e-39,1,1.14013e-38,6.66134e-16,6.10255e+06,363
0.00634,4.3933e-38,1,6.05607e-38,1.77636e-15,6.10255e+06,363
0.00636,2.26037e-37,1,3.17295e-37,1.88738e-15,6.10255e+06,363
0.00638,1.14711e-36,1,1.63958e-36,1.22125e-15,6.10255e+06,363
0.0064,5.74159e-36,1,8.35525e-36,9.99201e-16,6.10255e+06,363
0.00642,2.83411e-35,1,4.19855e-35,9.99201e-16,6.10255e+06,363
0.00644,1.37949e-34,1,2.08023e-34,1.33227e-15,6.10255e+06,363
0.00646,6.62063e-34,1,1.01615e-33,8.88178e-16,6.10255e+06,363
0.00648,3.13269e-33,1,4.89322e-33,2.10942e-15,6.10255e+06,363
0.0065,1.46128e-32,1,2.32265e-32,1.55431e-15,6.10255e+06,363
0.00652,6.7191e-32,1,1.08664e-31,2.22045e-15,6.10255e+06,363
0.00654,3.04515e-31,1,5.01028e-31,1.88738e-15,6.10255e+06,363
0.00656,1.36016e-30,1,2.27652e-30,1.9984e-15,6.10255e+06,363
0.00658,5.98705e-30,1,1.01924e-29,1.55431e-15,6.10255e+06,363
0.0066,2.59679e-29,1,4.49606e-29,1.22125e-15,6.10255e+06,363
0.00662,1.10973e-28,1,1.95387e-28,1.22125e-15,6.10255e+06,363
0.00664,4.67207e-28,1,8.3641e-28,1.66533e-15,6.10255e+06,363
0.00666,1.93758e-27,1,3.52655e-27,1.33227e-15,6.10255e+06,363
0.00668,7.91432e-27,1,1.46431e-26,1.66533e-15,6.10255e+06,363
0.0067,3.18354e-26,1,5.98695e-26,1.77636e-15,6.10255e+06,363
0.00672,1.26091e-25,1,2.40992e-25,1.55431e-15,6.10255e+06,363
0.00674,4.91671e-25,1,9.549e-25,4.44089e-16,6.10255e+06,363
0.00676,1.88717e-24,1,3.72393e-24,1.11022e-16,6.10255e+06,363
0.00678,7.12907e-24,1,1.42913e-23,0,6.10255e+06,363
0.0068,2.65019e-23,1,5.39638e-23,3.33067e-16,6.10255e+06,363
0.00682,9.69374e-23,1,2.00466e-22,2.22045e-16,6.10255e+06,363
0.00684,3.48835e-22,1,7.32542e-22,5.55112e-16,6.10255e+06,363
0.00686,1.23484e-21,1,2.63282e-21,6.66134e-16,6.10255e+06,363
0.00688,4.29932e-21,1,9.30562e-21,2.22045e-16,6.10255e+06,363
0.0069,1.47203e-20,1,3.23394e-20,0,6.10255e+06,363
0.00692,4.95537e-20,1,1.10482e-19,3.33067e-16,6.10255e+06,363
0.00694,1.63979e-19,1,3.70967e-19,0,6.10255e+06,363
0.00696,5.33283e-19,1,1.22395e-18,1.11022e-16,6.10255e+06,363
0.00698,1.70456e-18,1,3.96826e-18,0,6.10255e+06,363
0.007,5.3602e-18,1,1.26559e-17,1.11022e-16,6.10255e+06,363
0.00702,1.65869e-17,1,3.97142e-17,5.55112e-16,6.10255e+06,363
0.00704,5.05796e-17,1,1.22797e-16,6.66134e-16,6.10255e+06,363
0.00706,1.52277e-16,1,3.74869e-16,1.33227e-15,6.10255e+06,363
0.00708,4.78611e-16,1,1.19641e-15,7.99361e-15,6.10255e+06,363
0.0071,1.59089e-15,1,4.04642e-15,3.61933e-14,6.10255e+06,363
0.00712,5.59286e-15,1,1.45062e-14,1.34004e-13,6.10255e+06,363
0.00714,1.99686e-14,1,5.28678e-14,4.74509e-13,6.10255e+06,363
0.00716,7.03099e-14,1,1.90018e-13,1.62581e-12,6.10255e+06,363.001
0.00718,2.41501e-13,1,6.6601e-13,5.4442e-12,6.10255e+06,363.001
0.0072,8.06286e-13,1,2.26791e-12,1.77144e-11,6.10255e+06,363.002
0.00722,2.61495e-12,1,7.49819e-12,5.60452e-11,6.10255e+06,363.004
0.00724,8.23736e-12,1,2.40668e-11,1.7234e-10,6.10255e+06,363.008
0.00726,2.5202e-11,1,7.49868e-11,5.15033e-10,6.10255e+06,363.014
0.00728,7.48829e-11,1,2.26793e-10,1.49576e-09,6.10255e+06,363.024
0.0073,2.16077e-10,1,6.65789e-10,4.22137e-09,6.10255e+06,363.041
0.00732,6.05467e-10,1,1.89706e-09,1.15768e-08,6.10255e+06,363.069
0.00734,1.64742e-09,1,5.24615e-09,3.08495e-08,6.10255e+06,363.115
0.00736,4.35229e-09,1,1.40795e-08,7.98732e-08,6.10255e+06,363.19
0.00738,1.11633e-08,1,3.66678e-08,2.00916e-07,6.10255e+06,363.308
0.0074,2.77952e-08,0.999999,9.26585e-08,4.90959e-07,6.10255e+06,363.493
0.00742,6.71711e-08,0.999999,2.27156e-07,1.16527e-06,6.10255e+06,363.776
0.00744,1.57517e-07,0.999997,5.40151e-07,2.68585e-06,6.10255e+06,364.205
0.00746,3.5832e-07,0.999992,1.24549e-06,6.01025e-06,6.10255e+06,364.842
0.00748,7.90376e-07,0.999983,2.78381e-06,1.30531e-05,6.10255e+06,365.773
0.0075,1.68961e-06,0.999965,6.02863e-06,2.75011e-05,6.10255e+06,367.109
0.00752,3.49823e-06,0.999928,1.26424e-05,5.61789e-05,6.10255e+06,368.989
0.00754,7.00945e-06,0.999856,2.56556e-05,0.0001112,6.10255e+06,371.579
0.00756,1.35808e-05,0.999723,5.03455e-05,0.000213126,6.10255e+06,375.072
0.00758,2.54215e-05,0.999484,9.54645e-05,0.000395246,6.10255e+06,379.669
0.0076,4.59385e-05,0.99907,0.000174802,0.000708807,6.10255e+06,385.574
0.00762,8.00977e-05,0.998382,0.000308951,0.00122868,6.10255e+06,392.962
0.00764,0.000134729,0.99728,0.000527023,0.00205853,6.10255e+06,401.969
0.00766,0.000218695,0.995579,0.000868012,0.00333454,6.10255e+06,412.671
0.00768,0.000342882,0.993049,0.00138153,0.00522679,6.10255e+06,425.08
0.0077,0.000519997,0.989414,0.00212782,0.00793822,6.10255e+06,439.153
0.00772,0.000764267,0.984357,0.00317717,0.0117018,6.10255e+06,454.803
0.00774,0.0010911,0.977523,0.0046091,0.016777,6.10255e+06,471.919
0.00776,0.00151684,0.968526,0.00651143,0.0234461,6.10255e+06,490.382
0.00778,0.00205863,0.95695,0.00897975,0.0320118,6.10255e+06,510.076
0.0078,0.00273435,0.942353,0.012117,0.0427954,6.10255e+06,530.889
0.00782,0.00356266,0.92427,0.0160328,0.0561345,6.10255e+06,552.713
0.00784,0.00456293,0.902215,0.0208429,0.0723792,6.10255e+06,575.432
0.00786,0.00513372,0.889544,0.0236204,0.0817022,6.10255e+06,587.086
0.00788,0.00715787,0.844229,0.0336207,0.114993,6.10255e+06,622.974
0.0079,0.00794414,0.826502,0.0375566,0.127997,6.10255e+06,635.157
0.00792,0.0106635,0.764823,0.0513343,0.173179,6.10255e+06,671.878
0.00794,0.0127863,0.716392,0.0622256,0.208596,6.10255e+06,696.05
0.00796,0.0151532,0.6622,0.0744714,0.248175,6.10255e+06,719.475
0.00798,0.0177437,0.602733,0.0879647,0.291559,6.10255e+06,741.682
0.008,0.0205172,0.538943,0.102486,0.338054,6.10255e+06,762.216
0.00802,0.0234112,0.4723,0.11769,0.386599,6.10255e+06,780.706
0.00804,0.0263426,0.404744,0.133115,0.435798,6.10255e+06,796.928
0.00806,0.0292148,0.338535,0.148225,0.484025,6.10255e+06,810.849
0.00808,0.0319294,0.275979,0.162469,0.529623,6.10255e+06,822.622
0.0081,0.0344001,0.219103,0.175369,0.571128,6.10255e+06,832.54
0.00812,0.0365651,0.169371,0.186583,0.60748,6.10255e+06,840.961
0.00814,0.0383936,0.127526,0.195948,0.638132,6.10255e+06,848.231
0.00816,0.0398852,0.0935908,0.20347,0.663054,6.10255e+06,854.632
0.00818,0.0410641,0.0670086,0.209293,0.682634,6.10255e+06,860.363
0.0082,0.0415483,0.0561926,0.211637,0.690622,6.10255e+06,863.019
0.00822,0.0426482,0.0320102,0.216791,0.708551,6.10255e+06,870.255
0.00824,0.0429168,0.0262391,0.217994,0.712851,6.10255e+06,872.438
0.00826,0.0435042,0.0139882,0.220477,0.722031,6.10255e+06,878.335
0.00828,0.043759,0.00895519,0.221446,0.72584,6.10255e+06,881.736
0.0083,0.0439383,0.00561436,0.222053,0.728394,6.10255e+06,884.73
0.00832,0.044064,0.00344781,0.222414,0.730074,6.10255e+06,887.337
0.00834,0.0441522,0.00207451,0.222614,0.731159,6.10255e+06,889.582
0.00836,0.0442145,0.00122369,0.222713,0.731848,6.10255e+06,891.494
0.00838,0.0442584,0.000719242,0.222751,0.732272,6.10255e+06,893.091
0.0084,0.04429,0.000423268,0.222755,0.732532,6.10255e+06,894.416
0.00842,0.0443146,0.000235412,0.222744,0.732706,6.10255e+06,895.541
0.00844,0.0443332,0.000127619,0.222726,0.732813,6.10255e+06,896.467
0.00846,0.0443475,6.77249e-05,0.222705,0.73288,6.10255e+06,897.221
0.00848,0.0443586,3.51922e-05,0.222685,0.732922,6.10255e+06,897.831
0.0085,0.0443674,1.79049e-05,0.222667,0.732948,6.10255e+06,898.319
0.00852,0.0443743,8.91865e-06,0.222652,0.732965,6.10255e+06,898.706
0.00854,0.0443772,6.24461e-06,0.222645,0.732971,6.10255e+06,898.868
0.00856,0.0443843,2.07617e-06,0.22263,0.732984,6.10255e+06,899.25
0.00858,0.0443861,1.42305e-06,0.222626,0.732987,6.10255e+06,899.349
0.0086,0.0443905,4.43797e-07,0.222616,0.732993,6.10255e+06,899.578
0.00862,0.0443927,1.9871e-07,0.222612,0.732995,6.10255e+06,899.687
0.00864,0.0443944,8.70876e-08,0.222609,0.732997,6.10255e+06,899.769
0.00866,0.0443958,3.73585e-08,0.222606,0.732998,6.10255e+06,899.831
0.00868,0.0443968,1.5686e-08,0.222605,0.732999,6.10255e+06,899.877
0.0087,0.0443976,6.4465e-09,0.222603,0.732999,6.10255e+06,899.912
0.00872,0.0443982,2.59311e-09,0.222602,0.733,6.10255e+06,899.937
0.00874,0.0443987,1.02094e-09,0.222602,0.733,6.10255e+06,899.955
0.00876,0.044399,3.93425e-10,0.222601,0.733,6.10255e+06,899.968
0.00878,0.0443993,1.48385e-10,0.222601,0.733,6.10255e+06,899.978
0.0088,0.0443995,5.47708e-11,0.222601,0.733,6.10255e+06,899.985
0.00882,0.0443996,1.97809e-11,0.2226,0.733,6.10255e+06,899.989
0.00884,0.0443997,7.24627e-12,0.2226,0.733,6.10255e+06,899.993
0.00886,0.0443998,2.87234e-12,0.2226,0.733,6.10255e+06,899.995
0.00888,0.0443998,1.68289e-12,0.2226,0.733,6.10255e+06,899.996
0.0089,0.0443999,3.25184e-13,0.2226,0.733,6.10255e+06,899.998
0.00892,0.0443999,1.85887e-13,0.2226,0.733,6.10255e+06,899.998
0.00894,0.0444,3.37314e-14,0.2226,0.733,6.10255e+06,899.999
0.00896,0.0444,1.0615e-14,0.2226,0.733,6.10255e+06,899.999
0.00898,0.0444,3.34285e-15,0.2226,0.733,6.10255e+06,900
0.009,0.0444,1.08354e-15,0.2226,0.733,6.10255e+06,900
0.00902,0.0444,3.69326e-16,0.2226,0.733,6.10255e+06,900
0.00904,0.0444,1.30782e-16,0.2226,0.733,6.10255e+06,900
0.00906,0.0444,4.69504e-17,0.2226,0.733,6.10255e+06,900
0.00908,0.0444,1.68255e-17,0.2226,0.733,6.10255e+06,900
0.0091,0.0444,5.97725e-18,0.2226,0.733,6.10255e+06,900
0.00912,0.0444,2.09909e-18,0.2226,0.733,6.10255e+06,900
0.00914,0.0444,7.27973e-19,0.2226,0.733,6.10255e+06,900
0.00916,0.0444,2.49234e-19,0.2226,0.733,6.10255e+06,900
0.00918,0.0444,8.42319e-20,0.2226,0.733,6.10255e+06,900
0.0092,0.0444,2.81018e-20,0.2226,0.733,6.10255e+06,900
0.00922,0.0444,1.61535e-20,0.2226,0.733,6.10255e+06,900
0.00924,0.0444,3.00967e-21,0.2226,0.733,6.10255e+06,900
0.00926,0.0444,9.663e-22,0.2226,0.733,6.10255e+06,900
0.00928,0.0444,3.06348e-22,0.2226,0.733,6.10255e+06,900
0.0093,0.0444,9.59095e-23,0.2226,0.733,6.10255e+06,900
0.00932,0.0444,2.96541e-23,0.2226,0.733,6.10255e+06,900
0.00934,0.0444,9.05558e-24,0.2226,0.733,6.10255e+06,900
0.00936,0.0444,2.73142e-24,0.2226,0.733,6.10255e+06,900
0.00938,0.0444,8.1383e-25,0.2226,0.733,6.10255e+06,900
0.0094,0.0444,2.39543e-25,0.2226,0.733,6.10255e+06,900
0.00942,0.0444,6.96573e-26,0.2226,0.733,6.10255e+06,900
0.00944,0.0444,2.00132e-26,0.2226,0.733,6.10255e+06,900
0.00946,0.0444,5.68149e-27,0.2226,0.733,6.10255e+06,900
0.00948,0.0444,1.5938e-27,0.2226,0.733,6.10255e+06,900
0.0095,0.0444,4.41837e-28,0.2226,0.733,6.10255e+06,900
0.00952,0.0444,1.21053e-28,0.2226,0.733,6.10255e+06,900
0.00954,0.0444,3.27796e-29,0.2226,0.733,6.10255e+06,900
0.00956,0.0444,1.69832e-29,0.2226,0.733,6.10255e+06,900
0.00958,0.0444,2.32123e-30,0.2226,0.733,6.10255e+06,900
0.0096,0.0444,6.07101e-31,0.2226,0.733,6.10255e+06,900
0.00962,0.0444,1.56976e-31,0.2226,0.733,6.10255e+06,900
0.00964,0.0444,4.01292e-32,0.2226,0.733,6.10255e+06,900
0.00966,0.0444,1.01431e-32,0.2226,0.733,6.10255e+06,900
0.00968,0.0444,2.53508e-33,0.2226,0.733,6.10255e+06,900
0.0097,0.0444,6.2654e-34,0.2226,0.733,6.10255e+06,900
0.00972,0.0444,1.53133e-34,0.2226,0.733,6.10255e+06,900
0.00974,0.0444,3.70153e-35,0.2226,0.733,6.10255e+06,900
0.00976,0.0444,8.84928e-36,0.2226,0.733,6.10255e+06,900
0.00978,0.0444,2.09255e-36,0.2226,0.733,6.10255e+06,900
0.0098,0.0444,4.89453e-37,0.2226,0.733,6.10255e+06,900
0.00982,0.0444,1.1325e-37,0.2226,0.733,6.10255e+06,900
0.00984,0.0444,2.59226e-38,0.2226,0.733,6.10255e+06,900
0.00986,0.0444,5.87021e-39,0.2226,0.733,6.10255e+06,900
0.00988,0.0444,1.3151e-39,0.2226,0.733,6.10255e+06,900
0.0099,0.0444,6.19921e-40,0.2226,0.733,6.10255e+06,900
0.00992,0.0444,6.37782e-41,0.2226,0.733,6.10255e+06,900
0.00994,0.0444,1.37008e-41,0.2226,0.733,6.10255e+06,900
0.00996,0.0444,2.79932e-42,0.2226,0.733,6.10255e+06,900