x,NH3,C7H16,O2,N2,p,T
0,1.67982e-322,1,0,0,6.10255e+06,363
2e-05,0,1,0,0,6.10255e+06,363
4e-05,1.63042e-322,1,1.4822e-322,2.22045e-16,6.10255e+06,363
6e-05,1.58101e-322,1,1.33398e-322,4.44089e-16,6.10255e+06,363
8e-05,3.45846e-323,1,0,2.22045e-16,6.10255e+06,363
0.0001,0,1,1.72923e-322,3.33067e-16,6.10255e+06,363
0.00012,0,1,0,3.33067e-16,6.10255e+06,363
0.00014,0,1,0,3.33067e-16,6.10255e+06,363
0.00016,0,1,1.58101e-322,0,6.10255e+06,363
0.00018,0,1,0,0,6.10255e+06,363
0.0002,1.97626e-323,1,0,1.11022e-16,6.10255e+06,363
0.00022,2.47033e-323,1,0,2.22045e-16,6.10255e+06,363
0.00024,0,1,1.5316e-322,2.22045e-16,6.10255e+06,363
0.00026,1.38338e-322,1,0,1.11022e-16,6.10255e+06,363
0.00028,3.95253e-323,1,1.33398e-322,0,6.10255e+06,363
0.0003,1.28457e-322,1,0,0,6.10255e+06,363
0.00032,1.43279e-322,1,0,1.11022e-16,6.10255e+06,363
0.00034,2.47033e-323,1,0,1.11022e-16,6.10255e+06,363
0.00036,1.33398e-322,1,0,4.44089e-16,6.10255e+06,363
0.00038,1.97626e-323,1,0,5.55112e-16,6.10255e+06,363
0.0004,1.67982e-322,1,0,3.33067e-16,6.10255e+06,363
0.00042,0,1,1.23516e-322,2.22045e-16,6.10255e+06,363
0.00044,0,1,0,2.22045e-16,6.10255e+06,363
0.00046,0,1,1.43279e-322,0,6.10255e+06,363
0.00048,0,1,1.58101e-322,2.22045e-16,6.10255e+06,363
0.0005,0,1,0,0,6.10255e+06,363
0.00052,1.38338e-322,1,0,3.33067e-16,6.10255e+06,363
0.00054,0,1,0,3.33067e-16,6.10255e+06,363
0.00056,1.38338e-322,1,1.38338e-322,2.22045e-16,6.10255e+06,363
0.00058,0,1,0,0,6.10255e+06,363
0.0006,0,1,1.33398e-322,2.22045e-16,6.10255e+06,363
0.00062,0,1,3.70549e-322,3.33067e-16,6.10255e+06,363
0.00064,0,1,6.42285e-322,1.11022e-16,6.10255e+06,363
0.00066,0,1,3.31024e-322,1.11022e-16,6.10255e+06,363
0.00068,1.58101e-322,1,6.62048e-322,1.11022e-16,6.10255e+06,363
0.0007,2.47033e-323,1,3.50787e-322,2.22045e-16,6.10255e+06,363
0.00072,0,1,6.66989e-322,5.55112e-16,6.10255e+06,363
0.00074,0,1,4.5454e-322,8.88178e-16,6.10255e+06,363
0.00076,0,1,6.52167e-322,9.99201e-16,6.10255e+06,363
0.00078,0,1,8.54734e-322,1.22125e-15,6.10255e+06,363
0.0008,0,1,1.16599e-321,1.11022e-15,6.10255e+06,363
0.00082,0,1,1.15117e-321,7.77156e-16,6.10255e+06,363
0.00084,0,1,1.13141e-321,3.33067e-16,6.10255e+06,363
0.00086,0,1,1.35868e-321,3.33067e-16,6.10255e+06,363
0.00088,2.47033e-323,1,1.13141e-321,1.11022e-16,6.10255e+06,363
0.0009,0,1,1.36856e-321,2.22045e-16,6.10255e+06,363
0.00092,0,1,1.99603e-321,1.11022e-16,6.10255e+06,363
0.00094,0,1,2.50491e-321,1.11022e-16,6.10255e+06,363
0.00096,0,1,2.54444e-321,2.22045e-16,6.10255e+06,363
0.00098,0,1,2.49009e-321,2.22045e-16,6.10255e+06,363
0.001,0,1,2.50985e-321,0,6.10255e+06,363
0.00102,0,1,2.55926e-321,2.22045e-16,6.10255e+06,363
0.00104,0,1,2.53456e-321,2.22045e-16,6.10255e+06,363
0.00106,0,1,2.56914e-321,8.88178e-16,6.10255e+06,363
0.00108,9.88131e-324,1,2.65313e-321,8.88178e-16,6.10255e+06,363
0.0011,1.23516e-322,1,2.66301e-321,8.88178e-16,6.10255e+06,363
0.00112,1.28457e-322,1,3.07309e-321,3.33067e-16,6.10255e+06,363
0.00114,0,1,3.16696e-321,1.11022e-16,6.10255e+06,363
0.00116,1.63042e-322,1,3.16696e-321,0,6.10255e+06,363
0.00118,0,1,3.19166e-321,6.66134e-16,6.10255e+06,363
0.0012,0,1,3.23613e-321,8.88178e-16,6.10255e+06,363
0.00122,1.38338e-322,1,3.13732e-321,9.99201e-16,6.10255e+06,363
0.00124,0,1,3.24601e-321,1.11022e-15,6.10255e+06,363
0.00126,0,1,3.17684e-321,8.88178e-16,6.10255e+06,363
0.00128,1.5316e-322,1,3.13732e-321,5.55112e-16,6.10255e+06,363
0.0013,0,1,3.24107e-321,5.55112e-16,6.10255e+06,363
0.00132,0,1,3.11261e-321,8.88178e-16,6.10255e+06,363
0.00134,0,1,3.21143e-321,2.22045e-16,6.10255e+06,363
0.00136,0,1,3.11755e-321,5.55112e-16,6.10255e+06,363
0.00138,0,1,3.23119e-321,7.77156e-16,6.10255e+06,363
0.0014,0,1,3.32506e-321,7.77156e-16,6.10255e+06,363
0.00142,0,1,3.10767e-321,7.77156e-16,6.10255e+06,363
0.00144,0,1,3.1966e-321,3.33067e-16,6.10255e+06,363
0.00146,0,1,3.17684e-321,2.22045e-16,6.10255e+06,363
0.00148,1.4822e-322,1,3.21637e-321,9.99201e-16,6.10255e+06,363
0.0015,1.63042e-322,1,3.19166e-321,3.33067e-16,6.10255e+06,363
0.00152,1.4822e-322,1,3.21143e-321,3.33067e-16,6.10255e+06,363
0.00154,0,1,3.34977e-321,5.55112e-16,6.10255e+06,363
0.00156,0,1,3.22625e-321,9.99201e-16,6.10255e+06,363
0.00158,0,1,3.25095e-321,8.88178e-16,6.10255e+06,363
0.0016,1.17094e-321,1,4.04146e-321,6.66134e-16,6.10255e+06,363
0.00162,1.37103e-320,1,3.94264e-321,4.44089e-16,6.10255e+06,363
0.00164,4.37604e-319,1,6.32898e-321,1.11022e-16,6.10255e+06,363
0.00166,1.52877e-317,1,8.11256e-320,1.11022e-16,6.10255e+06,363
0.00168,5.33932e-316,1,2.7731e-318,1.11022e-16,6.10255e+06,363
0.0017,1.85531e-314,1,9.88374e-317,3.33067e-16,6.10255e+06,363
0.00172,6.41283e-313,1,3.50881e-315,0,6.10255e+06,363
0.00174,2.20485e-311,1,1.2391e-313,2.22045e-16,6.10255e+06,363
0.00176,7.54047e-310,1,4.35247e-312,0,6.10255e+06,363
0.00178,2.56508e-308,1,1.5207e-310,2.22045e-16,6.10255e+06,363
0.0018,8.67922e-307,1,5.28475e-309,5.55112e-16,6.10255e+06,363
0.00182,2.921e-305,1,1.82671e-307,7.77156e-16,6.10255e+06,363
0.00184,9.77793e-304,1,6.28022e-306,8.88178e-16,6.10255e+06,363
0.00186,3.25552e-302,1,2.1475e-304,5.55112e-16,6.10255e+06,363
0.00188,1.07807e-300,1,7.3036e-303,4.44089e-16,6.10255e+06,363
0.0019,3.55074e-299,1,2.47048e-301,1.55431e-15,6.10255e+06,363
0.00192,1.16314e-297,1,8.31113e-300,1.33227e-15,6.10255e+06,363
0.00194,3.78944e-296,1,2.78077e-298,9.99201e-16,6.10255e+06,363
0.00196,1.22785e-294,1,9.2532e-297,5.55112e-16,6.10255e+06,363
0.00198,3.95674e-293,1,3.06219e-295,9.99201e-16,6.10255e+06,363
0.002,1.26807e-291,1,1.00782e-293,3.33067e-16,6.10255e+06,363
0.00202,4.04161e-290,1,3.29861e-292,0,6.10255e+06,363
0.00204,1.28105e-288,1,1.07368e-290,1.11022e-16,6.10255e+06,363
0.00206,7.19733e-288,1,6.11283e-290,1.11022e-16,6.10255e+06,363
0.00208,1.2658e-285,1,1.11872e-287,3.33067e-16,6.10255e+06,363
0.0021,3.94585e-284,1,3.58102e-286,2.22045e-16,6.10255e+06,363
0.00212,1.22317e-282,1,1.13989e-284,5.55112e-16,6.10255e+06,363
0.00214,3.77053e-281,1,3.60809e-283,7.77156e-16,6.10255e+06,363
0.00216,1.15579e-279,1,1.13566e-281,9.99201e-16,6.10255e+06,363
0.00218,3.52294e-278,1,3.55438e-280,8.88178e-16,6.10255e+06,363
0.0022,1.06777e-276,1,1.10617e-278,9.99201e-16,6.10255e+06,363
0.00222,3.21805e-275,1,3.42303e-277,9.99201e-16,6.10255e+06,363
0.00224,9.6436e-274,1,1.05324e-275,4.44089e-16,6.10255e+06,363
0.00226,2.8735e-272,1,3.22227e-274,7.77156e-16,6.10255e+06,363
0.00228,8.51335e-271,1,9.80188e-273,1.55431e-15,6.10255e+06,363
0.0023,2.50785e-269,1,2.96457e-271,8.88178e-16,6.10255e+06,363
0.00232,7.34526e-268,1,8.91478e-270,4.44089e-16,6.10255e+06,363
0.00234,2.13899e-266,1,2.66532e-268,8.88178e-16,6.10255e+06,363
0.00236,6.19301e-265,1,7.9227e-267,3.33067e-16,6.10255e+06,363
0.00238,1.78269e-263,1,2.34138e-265,2.22045e-16,6.10255e+06,363
0.0024,5.10183e-262,1,6.87921e-264,8.88178e-16,6.10255e+06,363
0.00242,1.45159e-260,1,2.0094e-262,9.99201e-16,6.10255e+06,363
0.00244,4.10602e-259,1,5.8351e-261,8.88178e-16,6.10255e+06,363
0.00246,1.15465e-257,1,1.68452e-259,6.66134e-16,6.10255e+06,363
0.00248,3.22796e-256,1,4.8344e-258,2.22045e-16,6.10255e+06,363
0.0025,8.97103e-255,1,1.37924e-256,4.44089e-16,6.10255e+06,363
0.00252,2.47849e-253,1,3.91165e-255,4.44089e-16,6.10255e+06,363
0.00254,6.80698e-252,1,1.1028e-253,5.55112e-16,6.10255e+06,363
0.00256,1.85839e-250,1,3.09059e-252,7.77156e-16,6.10255e+06,363
0.00258,5.04344e-249,1,8.60965e-251,3.33067e-16,6.10255e+06,363
0.0026,1.36055e-247,1,2.38409e-249,3.33067e-16,6.10255e+06,363
0.00262,3.64835e-246,1,6.56211e-248,6.66134e-16,6.10255e+06,363
0.00264,9.72438e-245,1,1.79532e-246,1.22125e-15,6.10255e+06,363
0.00266,2.57634e-243,1,4.88212e-245,1.22125e-15,6.10255e+06,363
0.00268,6.78441e-242,1,1.31958e-243,7.77156e-16,6.10255e+06,363
0.0027,1.77575e-240,1,3.54499e-242,5.55112e-16,6.10255e+06,363
0.00272,4.61958e-239,1,9.46542e-241,2.22045e-16,6.10255e+06,363
0.00274,1.19445e-237,1,2.51189e-239,0,6.10255e+06,363
0.00276,3.0695e-236,1,6.62505e-238,2.22045e-16,6.10255e+06,363
0.00278,7.83965e-235,1,1.73659e-236,2.22045e-16,6.10255e+06,363
0.0028,1.98996e-233,1,4.52395e-235,4.44089e-16,6.10255e+06,363
0.00282,5.01999e-232,1,1.17123e-233,0,6.10255e+06,363
0.00284,1.25853e-230,1,3.01341e-232,1.11022e-16,6.10255e+06,363
0.00286,3.13559e-229,1,7.70483e-231,2.22045e-16,6.10255e+06,363
0.00288,7.76353e-228,1,1.95769e-229,1.11022e-16,6.10255e+06,363
0.0029,1.91019e-226,1,4.94306e-228,0,6.10255e+06,363
0.00292,4.67051e-225,1,1.24024e-226,0,6.10255e+06,363
0.00294,1.13478e-223,1,3.09222e-225,2.22045e-16,6.10255e+06,363
0.00296,2.73973e-222,1,7.66084e-224,0,6.10255e+06,363
0.00298,6.57276e-221,1,1.88589e-222,6.66134e-16,6.10255e+06,363
0.003,1.56683e-219,1,4.61299e-221,3.33067e-16,6.10255e+06,363
0.00302,3.71125e-218,1,1.12115e-219,2.22045e-16,6.10255e+06,363
0.00304,8.73444e-217,1,2.70741e-218,0,6.10255e+06,363
0.00306,2.04247e-215,1,6.49594e-217,1.11022e-15,6.10255e+06,363
0.00308,4.74543e-214,1,1.54853e-215,9.99201e-16,6.10255e+06,363
0.0031,1.09543e-212,1,3.66755e-214,5.55112e-16,6.10255e+06,363
0.00312,2.5123e-211,1,8.62987e-213,5.55112e-16,6.10255e+06,363
0.00314,5.72439e-210,1,2.01741e-211,5.55112e-16,6.10255e+06,363
0.00316,1.29583e-208,1,4.68528e-210,1.11022e-15,6.10255e+06,363
0.00318,2.9142e-207,1,1.08099e-208,1.33227e-15,6.10255e+06,363
0.0032,6.51077e-206,1,2.47764e-207,1.33227e-15,6.10255e+06,363
0.00322,1.44503e-204,1,5.64132e-206,1.33227e-15,6.10255e+06,363
0.00324,3.18601e-203,1,1.27596e-204,6.66134e-16,6.10255e+06,363
0.00326,6.978e-202,1,2.8668e-203,5.55112e-16,6.10255e+06,363
0.00328,1.51816e-200,1,6.39813e-202,4.44089e-16,6.10255e+06,363
0.0033,3.28095e-199,1,1.41838e-200,4.44089e-16,6.10255e+06,363
0.00332,7.04314e-198,1,3.12327e-199,7.77156e-16,6.10255e+06,363
0.00334,1.50178e-196,1,6.8311e-198,9.99201e-16,6.10255e+06,363
0.00336,3.18063e-195,1,1.48398e-196,8.88178e-16,6.10255e+06,363
0.00338,6.69074e-194,1,3.20191e-195,6.66134e-16,6.10255e+06,363
0.0034,1.39791e-192,1,6.86161e-194,8.88178e-16,6.10255e+06,363
0.00342,2.90082e-191,1,1.46039e-192,1.33227e-15,6.10255e+06,363
0.00344,5.97841e-190,1,3.08691e-191,1.11022e-15,6.10255e+06,363
0.00346,1.22367e-188,1,6.48014e-190,1.33227e-15,6.10255e+06,363
0.00348,2.48741e-187,1,1.35095e-188,3.33067e-16,6.10255e+06,363
0.0035,5.0214e-186,1,2.7969e-187,8.88178e-16,6.10255e+06,363
0.00352,1.00666e-184,1,5.75027e-186,7.77156e-16,6.10255e+06,363
0.00354,2.00409e-183,1,1.17398e-184,8.88178e-16,6.10255e+06,363
0.00356,3.96197e-182,1,2.38005e-183,8.88178e-16,6.10255e+06,363
0.00358,7.77781e-181,1,4.79128e-182,6.66134e-16,6.10255e+06,363
0.0036,1.51616e-179,1,9.5774e-181,5.55112e-16,6.10255e+06,363
0.00362,2.93467e-178,1,1.90091e-179,3.33067e-16,6.10255e+06,363
0.00364,5.6402e-177,1,3.74615e-178,2.22045e-16,6.10255e+06,363
0.00366,1.07631e-175,1,7.33002e-177,2.22045e-16,6.10255e+06,363
0.00368,2.03928e-174,1,1.424e-175,3.33067e-16,6.10255e+06,363
0.0037,3.83621e-173,1,2.74658e-174,1.11022e-16,6.10255e+06,363
0.00372,7.16476e-172,1,5.2594e-173,4.44089e-16,6.10255e+06,363
0.00374,1.32851e-170,1,9.99844e-172,0,6.10255e+06,363
0.00376,2.44557e-169,1,1.88699e-170,3.33067e-16,6.10255e+06,363
0.00378,4.46925e-168,1,3.53537e-169,5.55112e-16,6.10255e+06,363
0.0038,8.10809e-167,1,6.57534e-168,4.44089e-16,6.10255e+06,363
0.00382,1.46023e-165,1,1.21397e-166,4.44089e-16,6.10255e+06,363
0.00384,2.61052e-164,1,2.2248e-165,6.66134e-16,6.10255e+06,363
0.00386,4.63263e-163,1,4.04721e-164,1.11022e-16,6.10255e+06,363
0.00388,8.16039e-162,1,7.30789e-163,6.66134e-16,6.10255e+06,363
0.0039,1.4268e-160,1,1.30974e-161,1.22125e-15,6.10255e+06,363
0.00392,2.47614e-159,1,2.32984e-160,6.66134e-16,6.10255e+06,363
0.00394,4.26513e-158,1,4.11339e-159,2.22045e-16,6.10255e+06,363
0.00396,7.29161e-157,1,7.20767e-158,8.88178e-16,6.10255e+06,363
0.00398,1.23719e-155,1,1.25343e-156,7.77156e-16,6.10255e+06,363
0.004,2.08333e-154,1,2.16322e-155,5.55112e-16,6.10255e+06,363
0.00402,3.48158e-153,1,3.70499e-154,8.88178e-16,6.10255e+06,363
0.00404,5.77403e-152,1,6.29715e-153,6.66134e-16,6.10255e+06,363
0.00406,9.50284e-151,1,1.06209e-151,0,6.10255e+06,363
0.00408,1.55198e-149,1,1.77755e-150,1.11022e-16,6.10255e+06,363
0.0041,2.51516e-148,1,2.95201e-149,0,6.10255e+06,363
0.00412,1.00959e-147,1,1.1995e-148,0,6.10255e+06,363
0.00414,6.45373e-146,1,7.95345e-147,7.77156e-16,6.10255e+06,363
0.00416,1.02176e-144,1,1.29024e-145,5.55112e-16,6.10255e+06,363
0.00418,1.60503e-143,1,2.07667e-144,6.66134e-16,6.10255e+06,363
0.0042,2.50148e-142,1,3.31613e-143,2.22045e-16,6.10255e+06,363
0.00422,3.86792e-141,1,5.2535e-142,0,6.10255e+06,363
0.00424,5.93351e-140,1,8.25669e-141,5.55112e-16,6.10255e+06,363
0.00426,9.02996e-139,1,1.28733e-139,3.33067e-16,6.10255e+06,363
0.00428,1.36328e-137,1,1.99106e-138,4.44089e-16,6.10255e+06,363
0.0043,2.04173e-136,1,3.05476e-137,1.11022e-15,6.10255e+06,363
0.00432,3.03326e-135,1,4.64895e-136,1.44329e-15,6.10255e+06,363
0.00434,4.46997e-134,1,7.01782e-135,9.99201e-16,6.10255e+06,363
0.00436,6.53386e-133,1,1.05076e-133,7.77156e-16,6.10255e+06,363
0.00438,9.47307e-132,1,1.56045e-132,3.33067e-16,6.10255e+06,363
0.0044,1.36224e-130,1,2.29838e-131,1.11022e-16,6.10255e+06,363
0.00442,1.94286e-129,1,3.35741e-130,7.77156e-16,6.10255e+06,363
0.00444,2.74817e-128,1,4.8639e-129,5.55112e-16,6.10255e+06,363
0.00446,1.03037e-127,1,1.84552e-128,2.22045e-16,6.10255e+06,363
0.00448,5.3632e-126,1,9.95583e-127,3.33067e-16,6.10255e+06,363
0.0045,7.39899e-125,1,1.40656e-125,3.33067e-16,6.10255e+06,363
0.00452,1.01222e-123,1,1.97051e-124,1.11022e-16,6.10255e+06,363
0.00454,1.37313e-122,1,2.73728e-123,2.22045e-16,6.10255e+06,363
0.00456,1.84702e-121,1,3.77021e-122,1.11022e-16,6.10255e+06,363
0.00458,2.46341e-120,1,5.14875e-121,9.99201e-16,6.10255e+06,363
0.0046,3.25755e-119,1,6.97128e-120,8.88178e-16,6.10255e+06,363
0.00462,4.27092e-118,1,9.35797e-119,1.66533e-15,6.10255e+06,363
0.00464,5.5515e-117,1,1.24535e-117,7.77156e-16,6.10255e+06,363
0.00466,7.15387e-116,1,1.64297e-116,6.66134e-16,6.10255e+06,363
0.00468,9.13899e-115,1,2.1487e-115,1.11022e-15,6.10255e+06,363
0.0047,1.15735e-113,1,2.78558e-114,6.66134e-16,6.10255e+06,363
0.00472,1.45286e-112,1,3.57957e-113,1.11022e-16,6.10255e+06,363
0.00474,1.80784e-111,1,4.55938e-112,0,6.10255e+06,363
0.00476,2.22975e-110,1,5.75603e-111,3.33067e-16,6.10255e+06,363
0.00478,2.7258e-109,1,7.20221e-110,5.55112e-16,6.10255e+06,363
0.0048,3.30262e-108,1,8.93132e-109,3.33067e-16,6.10255e+06,363
0.00482,3.96579e-107,1,1.09763e-107,7.77156e-16,6.10255e+06,363
0.00484,4.71946e-106,1,1.33681e-106,1.44329e-15,6.10255e+06,363
0.00486,5.56579e-105,1,1.61338e-105,7.77156e-16,6.10255e+06,363
0.00488,6.50455e-104,1,1.92949e-104,4.44089e-16,6.10255e+06,363
0.0049,7.5326e-103,1,2.28647e-103,0,6.10255e+06,363
0.00492,8.64353e-102,1,2.68467e-102,0,6.10255e+06,363
0.00494,9.82739e-101,1,3.12318e-101,3.33067e-16,6.10255e+06,363
0.00496,1.10705e-99,1,3.5997e-100,3.33067e-16,6.10255e+06,363
0.00498,1.23555e-98,1,4.11036e-99,3.33067e-16,6.10255e+06,363
0.005,1.36615e-97,1,4.64965e-98,5.55112e-16,6.10255e+06,363
0.00502,1.49645e-96,1,5.21034e-97,3.33067e-16,6.10255e+06,363
0.00504,1.62381e-95,1,5.78361e-96,0,6.10255e+06,363
0.00506,1.74539e-94,1,6.35916e-95,0,6.10255e+06,363
0.00508,1.85831e-93,1,6.92545e-94,0,6.10255e+06,363
0.0051,1.95972e-92,1,7.47006e-93,1.11022e-16,6.10255e+06,363
0.00512,6.34115e-92,1,2.44451e-92,1.11022e-16,6.10255e+06,363
0.00514,2.11743e-90,1,8.44268e-91,2.22045e-16,6.10255e+06,363
0.00516,2.16924e-89,1,8.84544e-90,1.11022e-16,6.10255e+06,363
0.00518,2.20077e-88,1,9.1771e-89,0,6.10255e+06,363
0.0052,2.21101e-87,1,9.42794e-88,5.55112e-16,6.10255e+06,363
0.00522,2.19953e-86,1,9.59031e-87,2.22045e-16,6.10255e+06,363
0.00524,2.16659e-85,1,9.659e-86,1.11022e-16,6.10255e+06,363
0.00526,2.11304e-84,1,9.63149e-85,0,6.10255e+06,363
0.00528,2.04033e-83,1,9.50813e-84,2.22045e-16,6.10255e+06,363
0.0053,1.95044e-82,1,9.29213e-83,2.22045e-16,6.10255e+06,363
0.00532,1.84581e-81,1,8.98942e-82,5.55112e-16,6.10255e+06,363
0.00534,1.72916e-80,1,8.6084e-81,5.55112e-16,6.10255e+06,363
0.00536,1.60347e-79,1,8.15951e-80,0,6.10255e+06,363
0.00538,1.47176e-78,1,7.65482e-79,0,6.10255e+06,363
0.0054,1.33704e-77,1,7.10741e-78,3.33067e-16,6.10255e+06,363
0.00542,1.20215e-76,1,6.53086e-77,2.22045e-16,6.10255e+06,363
0.00544,1.06968e-75,1,5.93865e-76,0,6.10255e+06,363
0.00546,9.41911e-75,1,5.34369e-75,2.22045e-16,6.10255e+06,363
0.00548,8.20733e-74,1,4.7578e-74,0,6.10255e+06,363
0.0055,7.07631e-73,1,4.19138e-73,1.11022e-16,6.10255e+06,363
0.00552,6.0367e-72,1,3.65319e-72,0,6.10255e+06,363
0.00554,5.09514e-71,1,3.1501e-71,0,6.10255e+06,363
0.00556,4.25453e-70,1,2.68714e-70,0,6.10255e+06,363
0.00558,3.51448e-69,1,2.26748e-69,0,6.10255e+06,363
0.0056,2.87184e-68,1,1.89261e-68,3.33067e-16,6.10255e+06,363
0.00562,2.32126e-67,1,1.56248e-67,6.66134e-16,6.10255e+06,363
0.00564,1.85578e-66,1,1.27579e-66,2.22045e-16,6.10255e+06,363
0.00566,1.46737e-65,1,1.03022e-65,0,6.10255e+06,363
0.00568,1.14747e-64,1,8.22693e-65,0,6.10255e+06,363
0.0057,8.87364e-64,1,6.4965e-64,1.22125e-15,6.10255e+06,363
0.00572,6.78574e-63,1,5.07255e-63,1.22125e-15,6.10255e+06,363
0.00574,5.13098e-62,1,3.91608e-62,1.33227e-15,6.10255e+06,363
0.00576,3.83604e-61,1,2.98902e-61,7.77156e-16,6.10255e+06,363
0.00578,2.83543e-60,1,2.25543e-60,2.33147e-15,6.10255e+06,363
0.0058,2.07195e-59,1,1.68238e-59,1.11022e-15,6.10255e+06,363
0.00582,1.49672e-58,1,1.24048e-58,8.88178e-16,6.10255e+06,363
0.00584,1.06873e-57,1,9.04046e-58,6.66134e-16,6.10255e+06,363
0.00586,7.54287e-57,1,6.51183e-57,9.99201e-16,6.10255e+06,363
0.00588,5.26159e-56,1,4.6355e-56,6.66134e-16,6.10255e+06,363
0.0059,3.62727e-55,1,3.26092e-55,7.77156e-16,6.10255e+06,363
0.00592,2.47113e-54,1,2.26676e-54,6.66134e-16,6.10255e+06,363
0.00594,1.66354e-53,1,1.5569e-53,3.33067e-16,6.10255e+06,363
0.00596,1.10652e-52,1,1.05651e-52,7.77156e-16,6.10255e+06,363
0.00598,7.27189e-52,1,7.08291e-52,5.55112e-16,6.10255e+06,363
0.006,4.72131e-51,1,4.69078e-51,1.11022e-16,6.10255e+06,363
0.00602,3.02811e-50,1,3.0686e-50,4.44089e-16,6.10255e+06,363
0.00604,1.91842e-49,1,1.98272e-49,3.33067e-16,6.10255e+06,363
0.00606,1.20045e-48,1,1.26525e-48,0,6.10255e+06,363
0.00608,7.41884e-48,1,7.97352e-48,0,6.10255e+06,363
0.0061,4.5278e-47,1,4.96188e-47,0,6.10255e+06,363
0.00612,2.72874e-46,1,3.0488e-46,0,6.10255e+06,363
0.00614,1.62376e-45,1,1.84953e-45,0,6.10255e+06,363
0.00616,9.5397e-45,1,1.10767e-44,0,6.10255e+06,363
0.00618,5.53299e-44,1,6.54833e-44,0,6.10255e+06,363
0.0062,3.16783e-43,1,3.82112e-43,0,6.10255e+06,363
0.00622,1.7902e-42,1,2.20064e-42,0,6.10255e+06,363
0.00624,9.98488e-42,1,1.25075e-41,0,6.10255e+06,363
0.00626,5.49599e-41,1,7.01474e-41,0,6.10255e+06,363
0.00628,2.9852e-40,1,3.88183e-40,0,6.10255e+06,363
0.0063,1.59987e-39,1,2.11936e-39,2.22045e-16,6.10255e+06,363
0.00632,8.45949e-39,1,1.14151e-38,0,6.10255e+06,363
0.00634,4.41276e-38,1,6.06479e-38,0,6.10255e+06,363
0.00636,2.27062e-37,1,3.17818e-37,0,6.10255e+06,363
0.00638,1.15241e-36,1,1.64258e-36,0,6.10255e+06,363
0.0064,5.76847e-36,1,8.37178e-36,0,6.10255e+06,363
0.00642,2.84749e-35,1,4.2074e-35,0,6.10255e+06,363
0.00644,1.38603e-34,1,2.08484e-34,0,6.10255e+06,363
0.00646,6.65193e-34,1,1.01848e-33,5.55112e-16,6.10255e+06,363
0.00648,3.14738e-33,1,4.90466e-33,1.33227e-15,6.10255e+06,363
0.0065,1.46802e-32,1,2.32809e-32,0,6.10255e+06,363
0.00652,6.74916e-32,1,1.08913e-31,3.33067e-16,6.10255e+06,363
0.00654,3.05817e-31,1,5.02114e-31,3.33067e-16,6.10255e+06,363
0.00656,1.36559e-30,1,2.28099e-30,1.22125e-15,6.10255e+06,363
0.00658,6.00869e-30,1,1.02093e-29,8.88178e-16,6.10255e+06,363
0.0066,2.60493e-29,1,4.50163e-29,8.88178e-16,6.10255e+06,363
0.00662,1.11256e-28,1,1.95526e-28,3.33067e-16,6.10255e+06,363
0.00664,4.6808e-28,1,8.36482e-28,2.22045e-16,6.10255e+06,363
0.00666,1.93974e-27,1,3.52437e-27,6.66134e-16,6.10255e+06,363
0.00668,7.91693e-27,1,1.46232e-26,0,6.10255e+06,363
0.0067,3.18217e-26,1,5.97447e-26,1.11022e-16,6.10255e+06,363
0.00672,1.25954e-25,1,2.40339e-25,6.66134e-16,6.10255e+06,363
0.00674,4.909e-25,1,9.5189e-25,1.33227e-15,6.10255e+06,363
0.00676,1.88386e-24,1,3.71165e-24,0,6.10255e+06,363
0.00678,7.11811e-24,1,1.4248e-23,4.44089e-16,6.10255e+06,363
0.0068,2.6481e-23,1,5.38441e-23,3.33067e-16,6.10255e+06,363
0.00682,9.69968e-23,1,2.00319e-22,1.11022e-16,6.10255e+06,363
0.00684,3.49801e-22,1,7.33662e-22,3.33067e-16,6.10255e+06,363
0.00686,1.24191e-21,1,2.64501e-21,1.11022e-16,6.10255e+06,363
0.00688,4.33988e-21,1,9.38483e-21,4.44089e-16,6.10255e+06,363
0.0069,1.49215e-20,1,3.27585e-20,1.11022e-16,6.10255e+06,363
0.00692,5.04472e-20,1,1.12422e-19,5.55112e-16,6.10255e+06,363
0.00694,1.67583e-19,1,3.79036e-19,1.11022e-16,6.10255e+06,363
0.00696,5.46564e-19,1,1.2544e-18,1.11022e-16,6.10255e+06,363
0.00698,1.74905e-18,1,4.0723e-18,5.55112e-16,6.10255e+06,363
0.007,5.49264e-18,1,1.29704e-17,0,6.10255e+06,363
0.00702,1.69527e-17,1,4.05931e-17,9.99201e-16,6.10255e+06,363
0.00704,5.15516e-17,1,1.25158e-16,7.77156e-16,6.10255e+06,363
0.00706,1.5437e-16,1,3.79951e-16,1.55431e-15,6.10255e+06,363
0.00708,4.83343e-16,1,1.20787e-15,8.54872e-15,6.10255e+06,363
0.0071,1.60127e-15,1,4.07113e-15,3.65263e-14,6.10255e+06,363
0.00712,5.61379e-15,1,1.45535e-14,1.32783e-13,6.10255e+06,363
0.00714,2.00053e-14,1,5.29383e-14,4.72178e-13,6.10255e+06,363
0.00716,7.03586e-14,1,1.90054e-13,1.62426e-12,6.10255e+06,363.001
0.00718,2.41516e-13,1,6.65724e-13,5.4392e-12,6.10255e+06,363.001
0.0072,8.06077e-13,1,2.26626e-12,1.76998e-11,6.10255e+06,363.002
0.00722,2.61389e-12,1,7.49187e-12,5.59952e-11,6.10255e+06,363.004
0.00724,8.23357e-12,1,2.40459e-11,1.72186e-10,6.10255e+06,363.008
0.00726,2.519e-11,1,7.49224e-11,5.14582e-10,6.10255e+06,363.014
0.00728,7.48472e-11,1,2.26605e-10,1.4945e-09,6.10255e+06,363.024
0.0073,2.15975e-10,1,6.65254e-10,4.21793e-09,6.10255e+06,363.041
0.00732,6.05185e-10,1,1.89559e-09,1.15678e-08,6.10255e+06,363.069
0.00734,1.64666e-09,1,5.24225e-09,3.08263e-08,6.10255e+06,363.115
0.00736,4.35032e-09,1,1.40694e-08,7.98157e-08,6.10255e+06,363.19
0.00738,1.11583e-08,1,3.66426e-08,2.00778e-07,6.10255e+06,363.308
0.0074,2.77831e-08,0.999999,9.25975e-08,4.90635e-07,6.10255e+06,363.492
0.00742,6.71424e-08,0.999999,2.27013e-07,1.16454e-06,6.10255e+06,363.776
0.00744,1.57451e-07,0.999997,5.39825e-07,2.68423e-06,6.10255e+06,364.204
0.00746,3.58174e-07,0.999992,1.24477e-06,6.0068e-06,6.10255e+06,364.841
0.00748,7.90063e-07,0.999983,2.78228e-06,1.30459e-05,6.10255e+06,365.772
0.0075,1.68896e-06,0.999965,6.02548e-06,2.74869e-05,6.10255e+06,367.108
0.00752,3.49693e-06,0.999928,1.26361e-05,5.61513e-05,6.10255e+06,368.987
0.00754,7.00696e-06,0.999856,2.56436e-05,0.000111148,6.10255e+06,371.577
0.00756,1.35762e-05,0.999723,5.03232e-05,0.000213033,6.10255e+06,375.068
0.00758,2.54133e-05,0.999484,9.54248e-05,0.000395084,6.10255e+06,379.665
0.0076,4.59244e-05,0.999071,0.000174734,0.000708536,6.10255e+06,385.569
0.00762,8.00746e-05,0.998383,0.000308839,0.00122824,6.10255e+06,392.956
0.00764,0.000134692,0.997281,0.000526845,0.00205785,6.10255e+06,401.963
0.00766,0.00021864,0.99558,0.000867742,0.00333352,6.10255e+06,412.663
0.00768,0.000342801,0.993051,0.00138113,0.00522532,6.10255e+06,425.071
0.0077,0.000519884,0.989417,0.00212725,0.00793616,6.10255e+06,439.143
0.00772,0.000764113,0.98436,0.0031764,0.011699,6.10255e+06,454.792
0.00774,0.0010909,0.977528,0.00460806,0.0167733,6.10255e+06,471.907
0.00776,0.00151658,0.968532,0.00651008,0.0234413,6.10255e+06,490.37
0.00778,0.0020583,0.956958,0.00897802,0.0320058,6.10255e+06,510.063
0.0078,0.00273393,0.942363,0.0121148,0.0427879,6.10255e+06,530.876
0.00782,0.00356216,0.924282,0.0160301,0.0561254,6.10255e+06,552.699
0.00784,0.00456233,0.90223,0.0208397,0.0723683,6.10255e+06,575.417
0.00786,0.00513306,0.88956,0.0236169,0.0816903,6.10255e+06,587.071
0.00788,0.00715704,0.844249,0.0336161,0.114978,6.10255e+06,622.959
0.0079,0.00794324,0.826524,0.0375517,0.127981,6.10255e+06,635.142
0.00792,0.0106624,0.76485,0.0513282,0.173159,6.10255e+06,671.864
0.00794,0.0127851,0.716422,0.0622188,0.208574,6.10255e+06,696.035
0.00796,0.0151518,0.662234,0.0744638,0.248151,6.10255e+06,719.461
0.00798,0.0177422,0.602769,0.0879564,0.291532,6.10255e+06,741.669
0.008,0.0205157,0.538982,0.102477,0.338026,6.10255e+06,762.204
0.00802,0.0234096,0.472339,0.117681,0.386571,6.10255e+06,780.695
0.00804,0.026341,0.404783,0.133106,0.43577,6.10255e+06,796.919
0.00806,0.0292133,0.338573,0.148216,0.483998,6.10255e+06,810.841
0.00808,0.031928,0.276013,0.162461,0.529598,6.10255e+06,822.616
0.0081,0.0343989,0.219133,0.175362,0.571106,6.10255e+06,832.535
0.00812,0.036564,0.169397,0.186578,0.607461,6.10255e+06,840.957
0.00814,0.0383927,0.127548,0.195943,0.638116,6.10255e+06,848.227
0.00816,0.0398846,0.0936079,0.203466,0.663041,6.10255e+06,854.628
0.00818,0.0410636,0.0670217,0.20929,0.682625,6.10255e+06,860.36
0.0082,0.0415478,0.056204,0.211634,0.690614,6.10255e+06,863.016
0.00822,0.0426479,0.0320172,0.21679,0.708545,6.10255e+06,870.252
0.00824,0.0429166,0.026245,0.217992,0.712846,6.10255e+06,872.435
0.00826,0.0435041,0.0139916,0.220476,0.722028,6.10255e+06,878.332
0.00828,0.0437589,0.00895746,0.221446,0.725838,6.10255e+06,881.734
0.0083,0.0439383,0.00561585,0.222053,0.728393,6.10255e+06,884.728
0.00832,0.044064,0.00344876,0.222414,0.730074,6.10255e+06,887.335
0.00834,0.0441522,0.00207511,0.222614,0.731159,6.10255e+06,889.581
0.00836,0.0442145,0.00122405,0.222713,0.731848,6.10255e+06,891.493
0.00838,0.0442584,0.00071945,0.222751,0.732271,6.10255e+06,893.091
0.0084,0.04429,0.000423395,0.222755,0.732532,6.10255e+06,894.416
0.00842,0.0443146,0.000235485,0.222744,0.732706,6.10255e+06,895.54
0.00844,0.0443332,0.00012766,0.222726,0.732813,6.10255e+06,896.466
0.00846,0.0443475,6.77473e-05,0.222705,0.73288,6.10255e+06,897.221
0.00848,0.0443586,3.52042e-05,0.222685,0.732922,6.10255e+06,897.83
0.0085,0.0443674,1.79112e-05,0.222667,0.732948,6.10255e+06,898.318
0.00852,0.0443743,8.9219e-06,0.222652,0.732965,6.10255e+06,898.706
0.00854,0.0443773,6.24692e-06,0.222645,0.732971,6.10255e+06,898.868
0.00856,0.0443843,2.07697e-06,0.22263,0.732984,6.10255e+06,899.25
0.00858,0.0443861,1.42361e-06,0.222626,0.732987,6.10255e+06,899.349
0.0086,0.0443905,4.43979e-07,0.222616,0.732993,6.10255e+06,899.578
0.00862,0.0443927,1.98794e-07,0.222612,0.732995,6.10255e+06,899.687
0.00864,0.0443944,8.71255e-08,0.222609,0.732997,6.10255e+06,899.769
0.00866,0.0443958,3.73753e-08,0.222606,0.732998,6.10255e+06,899.831
0.00868,0.0443968,1.56934e-08,0.222605,0.732999,6.10255e+06,899.878
0.0087,0.0443976,6.44967e-09,0.222603,0.732999,6.10255e+06,899.912
0.00872,0.0443982,2.59447e-09,0.222602,0.733,6.10255e+06,899.937
0.00874,0.0443987,1.02154e-09,0.222602,0.733,6.10255e+06,899.955
0.00876,0.044399,3.93691e-10,0.222601,0.733,6.10255e+06,899.968
0.00878,0.0443993,1.48507e-10,0.222601,0.733,6.10255e+06,899.978
0.0088,0.0443995,5.48208e-11,0.222601,0.733,6.10255e+06,899.985
0.00882,0.0443996,1.9789e-11,0.2226,0.733,6.10255e+06,899.989
0.00884,0.0443997,7.34705e-12,0.2226,0.733,6.10255e+06,899.993
0.00886,0.0443998,2.91672e-12,0.2226,0.733,6.10255e+06,899.995
0.00888,0.0443998,1.70366e-12,0.2226,0.733,6.10255e+06,899.996
0.0089,0.0443999,3.25373e-13,0.2226,0.733,6.10255e+06,899.998
0.00892,0.0443999,1.85404e-13,0.2226,0.733,6.10255e+06,899.998
0.00894,0.0444,3.34918e-14,0.2226,0.733,6.10255e+06,899.999
0.00896,0.0444,1.05488e-14,0.2226,0.733,6.10255e+06,899.999
0.00898,0.0444,3.33123e-15,0.2226,0.733,6.10255e+06,900
0.009,0.0444,1.08353e-15,0.2226,0.733,6.10255e+06,900
0.00902,0.0444,3.70512e-16,0.2226,0.733,6.10255e+06,900
0.00904,0.0444,1.31553e-16,0.2226,0.733,6.10255e+06,900
0.00906,0.0444,4.73294e-17,0.2226,0.733,6.10255e+06,900
0.00908,0.0444,1.69894e-17,0.2226,0.733,6.10255e+06,900
0.0091,0.0444,6.04219e-18,0.2226,0.733,6.10255e+06,900
0.00912,0.0444,2.1231e-18,0.2226,0.733,6.10255e+06,900
0.00914,0.0444,7.36337e-19,0.2226,0.733,6.10255e+06,900
0.00916,0.0444,2.52007e-19,0.2226,0.733,6.10255e+06,900
0.00918,0.0444,8.51024e-20,0.2226,0.733,6.10255e+06,900
0.0092,0.0444,2.8362e-20,0.2226,0.733,6.10255e+06,900
0.00922,0.0444,1.62931e-20,0.2226,0.733,6.10255e+06,900
0.00924,0.0444,3.02975e-21,0.2226,0.733,6.10255e+06,900
0.00926,0.0444,9.71473e-22,0.2226,0.733,6.10255e+06,900
0.00928,0.0444,3.07614e-22,0.2226,0.733,6.10255e+06,900
0.0093,0.0444,9.62042e-23,0.2226,0.733,6.10255e+06,900
0.00932,0.0444,2.97199e-23,0.2226,0.733,6.10255e+06,900
0.00934,0.0444,9.07011e-24,0.2226,0.733,6.10255e+06,900
0.00936,0.0444,2.73481e-24,0.2226,0.733,6.10255e+06,900
0.00938,0.0444,8.14744e-25,0.2226,0.733,6.10255e+06,900
0.0094,0.0444,2.3984e-25,0.2226,0.733,6.10255e+06,900
0.00942,0.0444,6.97668e-26,0.2226,0.733,6.10255e+06,900
0.00944,0.0444,2.00549e-26,0.2226,0.733,6.10255e+06,900
0.00946,0.0444,5.69704e-27,0.2226,0.733,6.10255e+06,900
0.00948,0.0444,1.59938e-27,0.2226,0.733,6.10255e+06,900
0.0095,0.0444,4.43749e-28,0.2226,0.733,6.10255e+06,900
0.00952,0.0444,1.2168e-28,0.2226,0.733,6.10255e+06,900
0.00954,0.0444,3.29773e-29,0.2226,0.733,6.10255e+06,900
0.00956,0.0444,1.70926e-29,0.2226,0.733,6.10255e+06,900
0.00958,0.0444,2.33881e-30,0.2226,0.733,6.10255e+06,900
0.0096,0.0444,6.12088e-31,0.2226,0.733,6.10255e+06,900
0.00962,0.0444,1.58348e-31,0.2226,0.733,6.10255e+06,900
0.00964,0.0444,4.04963e-32,0.2226,0.733,6.10255e+06,900
0.00966,0.0444,1.02387e-32,0.2226,0.733,6.10255e+06,900
0.00968,0.0444,2.55932e-33,0.2226,0.733,6.10255e+06,900
0.0097,0.0444,6.32535e-34,0.2226,0.733,6.10255e+06,900
0.00972,0.0444,1.54581e-34,0.2226,0.733,6.10255e+06,900
0.00974,0.0444,3.73565e-35,0.2226,0.733,6.10255e+06,900
0.00976,0.0444,8.92788e-36,0.2226,0.733,6.10255e+06,900
0.00978,0.0444,2.11025e-36,0.2226,0.733,6.10255e+06,900
0.0098,0.0444,4.93352e-37,0.2226,0.733,6.10255e+06,900
0.00982,0.0444,1.1409e-37,0.2226,0.733,6.10255e+06,900
0.00984,0.0444,2.60996e-38,0.2226,0.733,6.10255e+06,900
0.00986,0.0444,5.9067e-39,0.2226,0.733,6.10255e+06,900
0.00988,0.0444,1.32245e-39,0.2226,0.733,6.10255e+06,900
0.0099,0.0444,6.23195e-40,0.2226,0.733,6.10255e+06,900
0.00992,0.0444,6.40571e-41,0.2226,0.733,6.10255e+06,900
0.00994,0.0444,1.3753e-41,0.2226,0.733,6.10255e+06,900
0.00996,0.0444,2.80864e-42,0.2226,0.733,6.10255e+06,900