x,NH3,C7H16,O2,N2,p,T
0,1.67982e-322,1,0,0,6.10254e+06,363
2e-05,0,1,0,3.33067e-16,6.10254e+06,363
4e-05,1.63042e-322,1,1.4822e-322,4.44089e-16,6.10254e+06,363
6e-05,1.58101e-322,1,1.33398e-322,2.22045e-16,6.10254e+06,363
8e-05,3.45846e-323,1,0,1.11022e-16,6.10254e+06,363
0.0001,0,1,1.72923e-322,5.55112e-16,6.10254e+06,363
0.00012,0,1,0,3.33067e-16,6.10254e+06,363
0.00014,0,1,0,3.33067e-16,6.10254e+06,363
0.00016,0,1,1.58101e-322,2.22045e-16,6.10254e+06,363
0.00018,0,1,0,8.88178e-16,6.10254e+06,363
0.0002,1.97626e-323,1,0,2.22045e-16,6.10254e+06,363
0.00022,2.47033e-323,1,0,8.88178e-16,6.10254e+06,363
0.00024,0,1,1.5316e-322,7.77156e-16,6.10254e+06,363
0.00026,1.38338e-322,1,0,2.22045e-16,6.10254e+06,363
0.00028,3.95253e-323,1,1.33398e-322,1.11022e-16,6.10254e+06,363
0.0003,1.28457e-322,1,0,1.11022e-15,6.10254e+06,363
0.00032,1.43279e-322,1,0,1.22125e-15,6.10254e+06,363
0.00034,2.47033e-323,1,0,1.44329e-15,6.10254e+06,363
0.00036,1.33398e-322,1,0,1.22125e-15,6.10254e+06,363
0.00038,1.97626e-323,1,0,5.55112e-16,6.10254e+06,363
0.0004,1.67982e-322,1,0,5.55112e-16,6.10254e+06,363
0.00042,0,1,1.23516e-322,4.44089e-16,6.10254e+06,363
0.00044,0,1,0,2.22045e-16,6.10254e+06,363
0.00046,0,1,1.43279e-322,7.77156e-16,6.10254e+06,363
0.00048,0,1,1.58101e-322,0,6.10254e+06,363
0.0005,0,1,0,1.11022e-16,6.10254e+06,363
0.00052,1.38338e-322,1,0,7.77156e-16,6.10254e+06,363
0.00054,0,1,0,1.22125e-15,6.10254e+06,363
0.00056,1.38338e-322,1,1.38338e-322,1.55431e-15,6.10254e+06,363
0.00058,0,1,0,2.10942e-15,6.10254e+06,363
0.0006,0,1,1.33398e-322,1.33227e-15,6.10254e+06,363
0.00062,0,1,3.70549e-322,1.33227e-15,6.10254e+06,363
0.00064,0,1,6.42285e-322,1.77636e-15,6.10254e+06,363
0.00066,0,1,3.31024e-322,1.33227e-15,6.10254e+06,363
0.00068,1.58101e-322,1,6.62048e-322,9.99201e-16,6.10254e+06,363
0.0007,2.47033e-323,1,3.50787e-322,8.88178e-16,6.10254e+06,363
0.00072,0,1,6.66989e-322,9.99201e-16,6.10254e+06,363
0.00074,0,1,4.5454e-322,8.88178e-16,6.10254e+06,363
0.00076,0,1,6.52167e-322,9.99201e-16,6.10254e+06,363
0.00078,0,1,8.54734e-322,1.33227e-15,6.10254e+06,363
0.0008,0,1,1.16599e-321,1.66533e-15,6.10254e+06,363
0.00082,0,1,1.15117e-321,8.88178e-16,6.10254e+06,363
0.00084,0,1,1.13141e-321,1.22125e-15,6.10254e+06,363
0.00086,0,1,1.35868e-321,1.11022e-15,6.10254e+06,363
0.00088,2.47033e-323,1,1.13141e-321,1.44329e-15,6.10254e+06,363
0.0009,0,1,1.36856e-321,1.22125e-15,6.10254e+06,363
0.00092,0,1,1.99603e-321,1.33227e-15,6.10254e+06,363
0.00094,0,1,2.50491e-321,1.9984e-15,6.10254e+06,363
0.00096,0,1,2.54444e-321,1.88738e-15,6.10254e+06,363
0.00098,0,1,2.49009e-321,1.9984e-15,6.10254e+06,363
0.001,0,1,2.50985e-321,1.22125e-15,6.10254e+06,363
0.00102,0,1,2.55926e-321,1.22125e-15,6.10254e+06,363
0.00104,0,1,2.53456e-321,9.99201e-16,6.10254e+06,363
0.00106,0,1,2.59384e-321,7.77156e-16,6.10254e+06,363
0.00108,9.88131e-324,1,6.96138e-321,8.88178e-16,6.10254e+06,363
0.0011,1.23516e-322,1,1.24356e-319,9.99201e-16,6.10254e+06,363
0.00112,1.28457e-322,1,3.30848e-318,7.77156e-16,6.10254e+06,363
0.00114,0,1,8.95575e-317,9.99201e-16,6.10254e+06,363
0.00116,1.63042e-322,1,2.415e-315,9.99201e-16,6.10254e+06,363
0.00118,0,1,6.48262e-314,7.77156e-16,6.10254e+06,363
0.0012,0,1,1.73215e-312,2.22045e-16,6.10254e+06,363
0.00122,1.38338e-322,1,4.60698e-311,3.33067e-16,6.10254e+06,363
0.00124,0,1,1.21966e-309,0,6.10254e+06,363
0.00126,0,1,3.21404e-308,5.55112e-16,6.10254e+06,363
0.00128,1.5316e-322,1,8.43035e-307,9.99201e-16,6.10254e+06,363
0.0013,0,1,2.20099e-305,9.99201e-16,6.10254e+06,363
0.00132,0,1,5.71961e-304,3.33067e-16,6.10254e+06,363
0.00134,0,1,1.47939e-302,3.33067e-16,6.10254e+06,363
0.00136,0,1,3.80859e-301,2.22045e-16,6.10254e+06,363
0.00138,0,1,9.75901e-300,0,6.10254e+06,363
0.0014,0,1,2.48887e-298,4.44089e-16,6.10254e+06,363
0.00142,0,1,6.31757e-297,3.33067e-16,6.10254e+06,363
0.00144,0,1,1.59604e-295,5.55112e-16,6.10254e+06,363
0.00146,4.51082e-321,1,4.01308e-294,2.22045e-16,6.10254e+06,363
0.00148,1.36135e-319,1,1.00427e-292,4.44089e-16,6.10254e+06,363
0.0015,4.18891e-318,1,2.50121e-291,3.33067e-16,6.10254e+06,363
0.00152,1.28211e-316,1,6.19983e-290,5.55112e-16,6.10254e+06,363
0.00154,3.90472e-315,1,1.52943e-288,3.33067e-16,6.10254e+06,363
0.00156,1.18324e-313,1,3.7549e-287,3.33067e-16,6.10254e+06,363
0.00158,3.56758e-312,1,9.17439e-286,2.22045e-16,6.10254e+06,363
0.0016,1.07025e-310,1,2.23082e-284,2.22045e-16,6.10254e+06,363
0.00162,3.19451e-309,1,5.39824e-283,0,6.10254e+06,363
0.00164,9.48692e-308,1,1.29998e-281,0,6.10254e+06,363
0.00166,2.80313e-306,1,3.1154e-280,3.33067e-16,6.10254e+06,363
0.00168,8.24047e-305,1,7.42982e-279,3.33067e-16,6.10254e+06,363
0.0017,2.41018e-303,1,1.76329e-277,1.11022e-16,6.10254e+06,363
0.00172,7.01339e-302,1,4.16434e-276,0,6.10254e+06,363
0.00174,2.03042e-300,1,9.78678e-275,0,6.10254e+06,363
0.00176,5.8481e-299,1,2.28876e-273,1.11022e-16,6.10254e+06,363
0.00178,1.67576e-297,1,5.32624e-272,1.11022e-16,6.10254e+06,363
0.0018,4.77718e-296,1,1.23338e-270,1.11022e-16,6.10254e+06,363
0.00182,1.35484e-294,1,2.84201e-269,1.11022e-16,6.10254e+06,363
0.00184,3.82261e-293,1,6.51625e-268,4.44089e-16,6.10254e+06,363
0.00186,1.07295e-291,1,1.48665e-266,6.66134e-16,6.10254e+06,363
0.00188,2.99598e-290,1,3.37487e-265,8.88178e-16,6.10254e+06,363
0.0019,8.32222e-289,1,7.62313e-264,1.11022e-15,6.10254e+06,363
0.00192,2.2997e-287,1,1.7133e-262,1.22125e-15,6.10254e+06,363
0.00194,6.32167e-286,1,3.83135e-261,6.66134e-16,6.10254e+06,363
0.00196,1.72868e-284,1,8.52477e-260,4.44089e-16,6.10254e+06,363
0.00198,4.70236e-283,1,1.88721e-258,4.44089e-16,6.10254e+06,363
0.002,1.27242e-281,1,4.15682e-257,3.33067e-16,6.10254e+06,363
0.00202,3.42493e-280,1,9.10957e-256,1.11022e-16,6.10254e+06,363
0.00204,9.17016e-279,1,1.98621e-254,0,6.10254e+06,363
0.00206,4.73561e-278,1,9.25674e-254,0,6.10254e+06,363
0.00208,6.47014e-276,1,9.29882e-252,2.22045e-16,6.10254e+06,363
0.0021,1.70497e-274,1,1.99661e-250,0,6.10254e+06,363
0.00212,4.46891e-273,1,4.26506e-249,0,6.10254e+06,363
0.00214,1.1651e-271,1,9.064e-248,6.66134e-16,6.10254e+06,363
0.00216,3.02133e-270,1,1.91633e-246,4.44089e-16,6.10254e+06,363
0.00218,7.7929e-269,1,4.03062e-245,0,6.10254e+06,363
0.0022,1.99923e-267,1,8.4337e-244,0,6.10254e+06,363
0.00222,5.10132e-266,1,1.75551e-242,0,6.10254e+06,363
0.00224,1.29466e-264,1,3.63513e-241,0,6.10254e+06,363
0.00226,3.26793e-263,1,7.48796e-240,0,6.10254e+06,363
0.00228,8.20412e-262,1,1.53436e-238,0,6.10254e+06,363
0.0023,2.04846e-260,1,3.12758e-237,0,6.10254e+06,363
0.00232,5.08691e-259,1,6.34156e-236,2.22045e-16,6.10254e+06,363
0.00234,1.25634e-257,1,1.27905e-234,1.11022e-16,6.10254e+06,363
0.00236,3.08588e-256,1,2.5661e-233,0,6.10254e+06,363
0.00238,7.5382e-255,1,5.12094e-232,0,6.10254e+06,363
0.0024,1.83133e-253,1,1.01651e-230,1.11022e-16,6.10254e+06,363
0.00242,4.42455e-252,1,2.00701e-229,3.33067e-16,6.10254e+06,363
0.00244,1.0631e-250,1,3.94147e-228,2.22045e-16,6.10254e+06,363
0.00246,2.54021e-249,1,7.69898e-227,0,6.10254e+06,363
0.00248,6.0361e-248,1,1.49578e-225,0,6.10254e+06,363
0.0025,1.42635e-246,1,2.89036e-224,3.33067e-16,6.10254e+06,363
0.00252,3.35178e-245,1,5.55499e-223,0,6.10254e+06,363
0.00254,7.83247e-244,1,1.06183e-221,1.11022e-16,6.10254e+06,363
0.00256,1.82008e-242,1,2.01863e-220,5.55112e-16,6.10254e+06,363
0.00258,4.20575e-241,1,3.81668e-219,1.11022e-16,6.10254e+06,363
0.0026,9.66397e-240,1,7.17685e-218,2.22045e-16,6.10254e+06,363
0.00262,2.2081e-238,1,1.34213e-216,1.11022e-16,6.10254e+06,363
0.00264,5.01684e-237,1,2.49611e-215,1.11022e-16,6.10254e+06,363
0.00266,1.1334e-235,1,4.61668e-214,1.11022e-16,6.10254e+06,363
0.00268,2.54609e-234,1,8.49159e-213,0,6.10254e+06,363
0.0027,5.68714e-233,1,1.55323e-211,0,6.10254e+06,363
0.00272,1.26311e-231,1,2.82526e-210,1.11022e-16,6.10254e+06,363
0.00274,2.78938e-230,1,5.1104e-209,2.22045e-16,6.10254e+06,363
0.00276,6.12479e-229,1,9.19212e-208,2.22045e-16,6.10254e+06,363
0.00278,1.33716e-227,1,1.64412e-206,1.11022e-16,6.10254e+06,363
0.0028,2.90256e-226,1,2.92418e-205,2.22045e-16,6.10254e+06,363
0.00282,6.26439e-225,1,5.17152e-204,0,6.10254e+06,363.001
0.00284,1.34422e-223,1,9.0943e-203,0,6.10254e+06,363.001
0.00286,2.86781e-222,1,1.59019e-201,1.11022e-16,6.10254e+06,363.001
0.00288,6.08293e-221,1,2.76472e-200,1.11022e-16,6.10254e+06,363.001
0.0029,1.28279e-219,1,4.77936e-199,0,6.10254e+06,363.001
0.00292,2.68948e-218,1,8.21475e-198,3.33067e-16,6.10254e+06,363.001
0.00294,5.60596e-217,1,1.40385e-196,1.11022e-16,6.10254e+06,363.001
0.00296,1.1617e-215,1,2.38528e-195,0,6.10254e+06,363.001
0.00298,2.39328e-214,1,4.02942e-194,1.11022e-16,6.10254e+06,363.001
0.003,4.90167e-213,1,6.76744e-193,4.44089e-16,6.10254e+06,363.001
0.00302,9.98025e-212,1,1.13e-191,3.33067e-16,6.10254e+06,363.001
0.00304,2.02013e-210,1,1.87582e-190,2.22045e-16,6.10254e+06,363.001
0.00306,4.06492e-209,1,3.09572e-189,0,6.10254e+06,363.001
0.00308,8.13118e-208,1,5.07901e-188,0,6.10254e+06,363.001
0.0031,1.61689e-206,1,8.28393e-187,6.66134e-16,6.10254e+06,363.001
0.00312,3.19614e-205,1,1.34315e-185,3.33067e-16,6.10254e+06,363.001
0.00314,6.28035e-204,1,2.1649e-184,1.11022e-16,6.10254e+06,363.001
0.00316,1.22673e-202,1,3.4687e-183,4.44089e-16,6.10254e+06,363.001
0.00318,2.38187e-201,1,5.52463e-182,9.99201e-16,6.10254e+06,363.001
0.0032,4.59709e-200,1,8.74662e-181,7.77156e-16,6.10254e+06,363.001
0.00322,8.81941e-199,1,1.37648e-179,6.66134e-16,6.10254e+06,363.001
0.00324,1.68183e-197,1,2.15319e-178,2.22045e-16,6.10254e+06,363.001
0.00326,3.18789e-196,1,3.34788e-177,4.44089e-16,6.10254e+06,363.001
0.00328,6.0062e-195,1,5.17398e-176,2.22045e-16,6.10254e+06,363.001
0.0033,1.12477e-193,1,7.94766e-175,0,6.10254e+06,363.001
0.00332,2.09359e-192,1,1.2134e-173,0,6.10254e+06,363.001
0.00334,3.87327e-191,1,1.84125e-172,0,6.10254e+06,363.001
0.00336,7.12221e-190,1,2.77685e-171,0,6.10254e+06,363.001
0.00338,1.30166e-188,1,4.16216e-170,0,6.10254e+06,363.001
0.0034,2.3644e-187,1,6.20014e-169,0,6.10254e+06,363.001
0.00342,4.26851e-186,1,9.17894e-168,0,6.10254e+06,363.001
0.00344,7.65881e-185,1,1.35046e-166,0,6.10254e+06,363.001
0.00346,1.36574e-183,1,1.97453e-165,0,6.10254e+06,363.001
0.00348,2.42042e-182,1,2.86896e-164,0,6.10254e+06,363.001
0.0035,4.26307e-181,1,4.14247e-163,3.33067e-16,6.10254e+06,363.001
0.00352,7.46204e-180,1,5.94371e-162,0,6.10254e+06,363.001
0.00354,1.29805e-178,1,8.47444e-161,3.33067e-16,6.10254e+06,363.001
0.00356,2.24396e-177,1,1.20063e-159,4.44089e-16,6.10254e+06,363.001
0.00358,3.85498e-176,1,1.69023e-158,7.77156e-16,6.10254e+06,363.001
0.0036,6.58125e-175,1,2.36433e-157,3.33067e-16,6.10254e+06,363.001
0.00362,1.11652e-173,1,3.28615e-156,0,6.10254e+06,363.001
0.00364,1.8823e-172,1,4.53812e-155,1.11022e-16,6.10254e+06,363.001
0.00366,3.15331e-171,1,6.22679e-154,7.77156e-16,6.10254e+06,363.001
0.00368,5.24925e-170,1,8.48872e-153,2.22045e-16,6.10254e+06,363.001
0.0037,8.68302e-169,1,1.14974e-151,0,6.10254e+06,363.001
0.00372,1.42719e-167,1,1.54713e-150,5.55112e-16,6.10254e+06,363.001
0.00374,2.33088e-166,1,2.06832e-149,6.66134e-16,6.10254e+06,363.001
0.00376,3.78252e-165,1,2.74699e-148,3.33067e-16,6.10254e+06,363.001
0.00378,6.09895e-164,1,3.62441e-147,9.99201e-16,6.10254e+06,363.001
0.0038,9.77094e-163,1,4.75061e-146,5.55112e-16,6.10254e+06,363.001
0.00382,1.5553e-161,1,6.18562e-145,8.88178e-16,6.10254e+06,363.001
0.00384,2.45971e-160,1,8.00069e-144,3.33067e-16,6.10254e+06,363.001
0.00386,3.86488e-159,1,1.02795e-142,1.11022e-15,6.10254e+06,363.001
0.00388,6.03338e-158,1,1.31192e-141,3.33067e-16,6.10254e+06,363.001
0.0039,9.35729e-157,1,1.66313e-140,9.99201e-16,6.10254e+06,363.001
0.00392,1.44177e-155,1,2.09417e-139,8.88178e-16,6.10254e+06,363.001
0.00394,2.20693e-154,1,2.61913e-138,1.22125e-15,6.10254e+06,363.001
0.00396,3.35598e-153,1,3.25352e-137,1.55431e-15,6.10254e+06,363.001
0.00398,5.06966e-152,1,4.01409e-136,6.66134e-16,6.10254e+06,363.001
0.004,7.60776e-151,1,4.91867e-135,9.99201e-16,6.10254e+06,363.001
0.00402,1.13408e-149,1,5.98586e-134,1.22125e-15,6.10254e+06,363.001
0.00404,1.67931e-148,1,7.23454e-133,4.44089e-16,6.10254e+06,363.001
0.00406,2.47005e-147,1,8.68341e-132,2.22045e-16,6.10254e+06,363.001
0.00408,3.60877e-146,1,1.03503e-130,0,6.10254e+06,363.001
0.0041,5.23697e-145,1,1.22515e-129,2.22045e-16,6.10254e+06,363.001
0.00412,1.98993e-144,1,4.20407e-129,0,6.10254e+06,363.001
0.00414,1.08064e-142,1,1.68088e-127,0,6.10254e+06,363.001
0.00416,1.53652e-141,1,1.94817e-126,6.66134e-16,6.10254e+06,363.001
0.00418,2.16978e-140,1,2.24203e-125,8.88178e-16,6.10254e+06,363.001
0.0042,3.04303e-139,1,2.56196e-124,6.66134e-16,6.10254e+06,363.001
0.00422,4.23832e-138,1,2.90676e-123,6.66134e-16,6.10254e+06,363.001
0.00424,5.86227e-137,1,3.27444e-122,5.55112e-16,6.10254e+06,363.001
0.00426,8.05215e-136,1,3.66224e-121,6.66134e-16,6.10254e+06,363.001
0.00428,1.09829e-134,1,4.06654e-120,4.44089e-16,6.10254e+06,363.001
0.0043,1.48754e-133,1,4.48291e-119,2.22045e-16,6.10254e+06,363.001
0.00432,2.00058e-132,1,4.90614e-118,5.55112e-16,6.10254e+06,363.001
0.00434,2.67153e-131,1,5.3303e-117,2.22045e-16,6.10254e+06,363.001
0.00436,3.54217e-130,1,5.74889e-116,2.22045e-16,6.10254e+06,363.001
0.00438,4.66305e-129,1,6.15493e-115,9.99201e-16,6.10254e+06,363.002
0.0044,6.09463e-128,1,6.54121e-114,4.44089e-16,6.10254e+06,363.002
0.00442,7.90836e-127,1,6.90041e-113,0,6.10254e+06,363.002
0.00444,1.01876e-125,1,7.2254e-112,1.11022e-16,6.10254e+06,363.002
0.00446,3.64651e-125,1,2.33152e-111,0,6.10254e+06,363.002
0.00448,1.65395e-123,1,7.74626e-110,1.11022e-15,6.10254e+06,363.002
0.0045,2.08427e-122,1,7.93067e-109,1.22125e-15,6.10254e+06,363.002
0.00452,2.60718e-121,1,8.05833e-108,1.66533e-15,6.10254e+06,363.002
0.00454,3.23709e-120,1,8.12613e-107,2.10942e-15,6.10254e+06,363.002
0.00456,3.98923e-119,1,8.13231e-106,1.55431e-15,6.10254e+06,363.002
0.00458,4.8793e-118,1,8.07645e-105,1.55431e-15,6.10254e+06,363.002
0.0046,5.92303e-117,1,7.95959e-104,1.44329e-15,6.10254e+06,363.002
0.00462,7.13558e-116,1,7.78414e-103,9.99201e-16,6.10254e+06,363.002
0.00464,8.53095e-115,1,7.5538e-102,4.44089e-16,6.10254e+06,363.002
0.00466,1.01211e-113,1,7.27348e-101,2.22045e-16,6.10254e+06,363.002
0.00468,1.19154e-112,1,6.94906e-100,6.66134e-16,6.10254e+06,363.002
0.0047,1.39192e-111,1,6.58723e-99,1.11022e-15,6.10254e+06,363.002
0.00472,1.61337e-110,1,6.19523e-98,2.10942e-15,6.10254e+06,363.002
0.00474,1.85541e-109,1,5.78064e-97,1.22125e-15,6.10254e+06,363.002
0.00476,2.117e-108,1,5.35111e-96,9.99201e-16,6.10254e+06,363.002
0.00478,2.39638e-107,1,4.91411e-95,3.33067e-16,6.10254e+06,363.002
0.0048,2.69106e-106,1,4.47677e-94,5.55112e-16,6.10254e+06,363.002
0.00482,2.99782e-105,1,4.04565e-93,1.11022e-16,6.10254e+06,363.002
0.00484,3.3127e-104,1,3.6266e-92,0,6.10254e+06,363.002
0.00486,3.63106e-103,1,3.22465e-91,2.22045e-16,6.10254e+06,363.002
0.00488,3.94766e-102,1,2.84396e-90,3.33067e-16,6.10254e+06,363.002
0.0049,4.25677e-101,1,2.48773e-89,1.11022e-16,6.10254e+06,363.002
0.00492,4.55233e-100,1,2.15828e-88,0,6.10254e+06,363.002
0.00494,4.82815e-99,1,1.85704e-87,1.11022e-15,6.10254e+06,363.002
0.00496,5.07808e-98,1,1.58462e-86,1.33227e-15,6.10254e+06,363.002
0.00498,5.29627e-97,1,1.34092e-85,9.99201e-16,6.10254e+06,363.002
0.005,5.47733e-96,1,1.12522e-84,4.44089e-16,6.10254e+06,363.002
0.00502,5.61664e-95,1,9.36289e-84,1.44329e-15,6.10254e+06,363.002
0.00504,5.71045e-94,1,7.72514e-83,1.44329e-15,6.10254e+06,363.003
0.00506,5.7561e-93,1,6.31985e-82,1.11022e-16,6.10254e+06,363.003
0.00508,5.75212e-92,1,5.12616e-81,3.33067e-16,6.10254e+06,363.003
0.0051,5.69833e-91,1,4.12236e-80,1.22125e-15,6.10254e+06,363.003
0.00512,1.78765e-90,1,1.16524e-79,1.11022e-15,6.10254e+06,363.003
0.00514,5.44699e-89,1,2.59764e-78,3.33067e-16,6.10254e+06,363.003
0.00516,5.25533e-88,1,2.03526e-77,0,6.10254e+06,363.003
0.00518,5.02541e-87,1,1.58071e-76,0,6.10254e+06,363.003
0.0052,4.76265e-86,1,1.21689e-75,1.11022e-16,6.10254e+06,363.003
0.00522,4.47308e-85,1,9.28541e-75,2.22045e-16,6.10254e+06,363.003
0.00524,4.16316e-84,1,7.02229e-74,1.11022e-16,6.10254e+06,363.003
0.00526,3.83949e-83,1,5.26335e-73,3.33067e-16,6.10254e+06,363.003
0.00528,3.5086e-82,1,3.90958e-72,7.77156e-16,6.10254e+06,363.003
0.0053,3.17672e-81,1,2.87779e-71,5.55112e-16,6.10254e+06,363.003
0.00532,2.84961e-80,1,2.09907e-70,1.11022e-16,6.10254e+06,363.003
0.00534,2.53238e-79,1,1.51708e-69,4.44089e-16,6.10254e+06,363.003
0.00536,2.22937e-78,1,1.08638e-68,7.77156e-16,6.10254e+06,363.003
0.00538,1.94411e-77,1,7.70764e-68,7.77156e-16,6.10254e+06,363.003
0.0054,1.67927e-76,1,5.41752e-67,1.11022e-16,6.10254e+06,363.003
0.00542,1.43666e-75,1,3.77219e-66,0,6.10254e+06,363.004
0.00544,1.2173e-74,1,2.6018e-65,1.11022e-16,6.10254e+06,363.004
0.00546,1.02147e-73,1,1.77752e-64,2.22045e-16,6.10254e+06,363.004
0.00548,8.48804e-73,1,1.20278e-63,1.22125e-15,6.10254e+06,363.004
0.0055,6.98425e-72,1,8.06046e-63,1.11022e-16,6.10254e+06,363.004
0.00552,5.6903e-71,1,5.34941e-62,1.11022e-16,6.10254e+06,363.004
0.00554,4.59015e-70,1,3.51555e-61,6.66134e-16,6.10254e+06,363.004
0.00556,3.66578e-69,1,2.28765e-60,3.33067e-16,6.10254e+06,363.004
0.00558,2.89819e-68,1,1.47389e-59,1.9984e-15,6.10254e+06,363.004
0.0056,2.2682e-67,1,9.40119e-59,2.10942e-15,6.10254e+06,363.004
0.00562,1.75711e-66,1,5.93623e-58,1.11022e-15,6.10254e+06,363.004
0.00564,1.34727e-65,1,3.71032e-57,1.11022e-15,6.10254e+06,363.004
0.00566,1.02239e-64,1,2.29536e-56,1.55431e-15,6.10254e+06,363.004
0.00568,7.67822e-64,1,1.40536e-55,1.55431e-15,6.10254e+06,363.005
0.0057,5.70628e-63,1,8.51507e-55,1.9984e-15,6.10254e+06,363.005
0.00572,4.19629e-62,1,5.10516e-54,1.11022e-15,6.10254e+06,363.005
0.00574,3.0533e-61,1,3.02839e-53,1.11022e-16,6.10254e+06,363.005
0.00576,2.19803e-60,1,1.77726e-52,2.22045e-16,6.10254e+06,363.005
0.00578,1.56541e-59,1,1.03178e-51,4.44089e-16,6.10254e+06,363.005
0.0058,1.10286e-58,1,5.92483e-51,7.77156e-16,6.10254e+06,363.005
0.00582,7.68569e-58,1,3.36488e-50,6.66134e-16,6.10254e+06,363.005
0.00584,5.29764e-57,1,1.88983e-49,3.33067e-16,6.10254e+06,363.005
0.00586,3.6115e-56,1,1.04951e-48,2.22045e-16,6.10254e+06,363.005
0.00588,2.43482e-55,1,5.76253e-48,3.33067e-16,6.10254e+06,363.006
0.0059,1.62325e-54,1,3.12789e-47,0,6.10254e+06,363.006
0.00592,1.07008e-53,1,1.67823e-46,0,6.10254e+06,363.006
0.00594,6.97461e-53,1,8.8993e-46,0,6.10254e+06,363.006
0.00596,4.49435e-52,1,4.66353e-45,0,6.10254e+06,363.006
0.00598,2.86301e-51,1,2.41474e-44,0,6.10254e+06,363.006
0.006,1.80282e-50,1,1.23529e-43,0,6.10254e+06,363.006
0.00602,1.12208e-49,1,6.24232e-43,0,6.10254e+06,363.006
0.00604,6.90239e-49,1,3.11564e-42,0,6.10254e+06,363.007
0.00606,4.1961e-48,1,1.53571e-41,0,6.10254e+06,363.007
0.00608,2.52073e-47,1,7.47431e-41,1.11022e-16,6.10254e+06,363.007
0.0061,1.49626e-46,1,3.59143e-40,4.44089e-16,6.10254e+06,363.007
0.00612,8.775e-46,1,1.70347e-39,2.22045e-16,6.10254e+06,363.007
0.00614,5.08409e-45,1,7.97451e-39,6.66134e-16,6.10254e+06,363.007
0.00616,2.90983e-44,1,3.68391e-38,1.22125e-15,6.10254e+06,363.007
0.00618,1.64503e-43,1,1.67911e-37,8.88178e-16,6.10254e+06,363.008
0.0062,9.18522e-43,1,7.54989e-37,2.22045e-16,6.10254e+06,363.008
0.00622,5.065e-42,1,3.3483e-36,6.66134e-16,6.10254e+06,363.008
0.00624,2.75806e-41,1,1.46438e-35,1.11022e-16,6.10254e+06,363.008
0.00626,1.48294e-40,1,6.3147e-35,5.55112e-16,6.10254e+06,363.008
0.00628,7.87223e-40,1,2.68437e-34,1.77636e-15,6.10254e+06,363.009
0.0063,4.12559e-39,1,1.12472e-33,1.88738e-15,6.10254e+06,363.009
0.00632,2.13426e-38,1,4.64384e-33,2.44249e-15,6.10254e+06,363.009
0.00634,1.08978e-37,1,1.8891e-32,1.44329e-15,6.10254e+06,363.009
0.00636,5.49191e-37,1,7.56999e-32,1.55431e-15,6.10254e+06,363.009
0.00638,2.7312e-36,1,2.9875e-31,1.33227e-15,6.10254e+06,363.01
0.0064,1.34025e-35,1,1.16093e-30,1.22125e-15,6.10254e+06,363.01
0.00642,6.48905e-35,1,4.44116e-30,1.33227e-15,6.10254e+06,363.01
0.00644,3.0995e-34,1,1.67219e-29,1.11022e-15,6.10254e+06,363.01
0.00646,1.4604e-33,1,6.19557e-29,9.99201e-16,6.10254e+06,363.011
0.00648,6.78705e-33,1,2.2583e-28,0,6.10254e+06,363.011
0.0065,3.11078e-32,1,8.09636e-28,0,6.10254e+06,363.011
0.00652,1.40602e-31,1,2.85433e-27,0,6.10254e+06,363.011
0.00654,6.26612e-31,1,9.89285e-27,9.99201e-16,6.10254e+06,363.012
0.00656,2.75325e-30,1,3.37006e-26,5.55112e-16,6.10254e+06,363.012
0.00658,1.19257e-29,1,1.1281e-25,1.88738e-15,6.10254e+06,363.012
0.0066,5.09172e-29,1,3.70977e-25,3.77476e-15,6.10254e+06,363.013
0.00662,2.14259e-28,1,1.1982e-24,4.32987e-15,6.10254e+06,363.013
0.00664,8.88496e-28,1,3.80008e-24,5.32907e-15,6.10254e+06,363.013
0.00666,3.63049e-27,1,1.18314e-23,6.88338e-15,6.10254e+06,363.014
0.00668,1.46157e-26,1,3.61548e-23,6.99441e-15,6.10254e+06,363.014
0.0067,5.79645e-26,1,1.08416e-22,6.77236e-15,6.10254e+06,363.014
0.00672,2.26435e-25,1,3.18972e-22,5.77316e-15,6.10254e+06,363.015
0.00674,8.71189e-25,1,9.20625e-22,4.32987e-15,6.10254e+06,363.015
0.00676,3.30074e-24,1,2.6065e-21,3.21965e-15,6.10254e+06,363.016
0.00678,1.23137e-23,1,7.23911e-21,6.66134e-16,6.10254e+06,363.016
0.0068,4.52254e-23,1,1.97253e-20,6.66134e-16,6.10254e+06,363.016
0.00682,1.63508e-22,1,5.27476e-20,1.11022e-15,6.10254e+06,363.017
0.00684,5.81839e-22,1,1.38496e-19,3.33067e-16,6.10254e+06,363.017
0.00686,2.03756e-21,1,3.5733e-19,0,6.10254e+06,363.018
0.00688,7.02106e-21,1,9.06971e-19,0,6.10254e+06,363.018
0.0069,2.38023e-20,1,2.26828e-18,0,6.10254e+06,363.019
0.00692,7.93784e-20,1,5.60139e-18,0,6.10254e+06,363.019
0.00694,2.60388e-19,1,1.36955e-17,1.11022e-16,6.10254e+06,363.02
0.00696,8.40205e-19,1,3.32658e-17,0,6.10254e+06,363.02
0.00698,2.66605e-18,1,8.05611e-17,1.11022e-16,6.10254e+06,363.021
0.007,8.32251e-18,1,1.95356e-16,0,6.10254e+06,363.021
0.00702,2.55159e-17,1,4.75406e-16,5.55112e-16,6.10254e+06,363.022
0.00704,7.80124e-17,1,1.17969e-15,6.77236e-15,6.10254e+06,363.022
0.00706,2.40432e-16,1,3.02391e-15,2.498e-14,6.10254e+06,363.023
0.00708,7.70939e-16,1,8.26315e-15,7.36078e-14,6.10254e+06,363.024
0.0071,2.64198e-15,1,2.47676e-14,2.27707e-13,6.10254e+06,363.024
0.00712,9.45621e-15,1,7.96777e-14,7.16982e-13,6.10254e+06,363.025
0.00714,3.38927e-14,1,2.62459e-13,2.2824e-12,6.10254e+06,363.026
0.00716,1.19086e-13,1,8.60478e-13,7.17504e-12,6.10254e+06,363.027
0.00718,4.0738e-13,1,2.77483e-12,2.21482e-11,6.10254e+06,363.029
0.0072,1.35417e-12,1,8.75887e-12,6.69373e-11,6.10254e+06,363.032
0.00722,4.37147e-12,1,2.70022e-11,1.97713e-10,6.10254e+06,363.035
0.00724,1.37018e-11,1,8.12003e-11,5.70103e-10,6.10254e+06,363.042
0.00726,4.16951e-11,1,2.38002e-10,1.60377e-09,6.10254e+06,363.052
0.00728,1.23174e-10,1,6.79546e-10,4.39933e-09,6.10254e+06,363.068
0.0073,3.53225e-10,1,1.88922e-09,1.17629e-08,6.10254e+06,363.094
0.00732,9.83233e-10,1,5.11216e-09,3.06462e-08,6.10254e+06,363.137
0.00734,2.65645e-09,1,1.346e-08,7.77755e-08,6.10254e+06,363.205
0.00736,6.96538e-09,1,3.44723e-08,1.92217e-07,6.10254e+06,363.313
0.00738,1.77228e-08,0.999999,8.58519e-08,4.62488e-07,6.10254e+06,363.481
0.0074,4.37517e-08,0.999999,2.07851e-07,1.08304e-06,6.10254e+06,363.738
0.00742,1.04769e-07,0.999997,4.89021e-07,2.46766e-06,6.10254e+06,364.128
0.00744,2.43289e-07,0.999993,1.11766e-06,5.46843e-06,6.10254e+06,364.707
0.00746,5.47632e-07,0.999985,2.48032e-06,1.17813e-05,6.10254e+06,365.554
0.00748,1.1943e-06,0.999969,5.34175e-06,2.46633e-05,6.10254e+06,366.771
0.0075,2.5219e-06,0.999936,1.11575e-05,5.01395e-05,6.10254e+06,368.489
0.00752,5.15235e-06,0.999873,2.25861e-05,9.89184e-05,6.10254e+06,370.865
0.00754,1.01761e-05,0.999756,4.42758e-05,0.000189241,6.10254e+06,374.083
0.00756,1.94125e-05,0.999546,8.39826e-05,0.000350797,6.10254e+06,378.341
0.00758,3.57398e-05,0.999181,0.000154024,0.000629637,6.10254e+06,383.84
0.0076,6.34625e-05,0.99857,0.000272965,0.00109364,6.10254e+06,390.766
0.00762,0.000108655,0.997586,0.000467336,0.00183775,6.10254e+06,399.267
0.00764,0.0001794,0.996059,0.000773076,0.00298808,6.10254e+06,409.435
0.00766,0.000285862,0.993774,0.00123643,0.00470384,6.10254e+06,421.302
0.00768,0.00044016,0.990469,0.00191416,0.00717703,6.10254e+06,434.843
0.0077,0.000656095,0.985841,0.00287312,0.0106301,6.10254e+06,449.983
0.00772,0.000948812,0.979549,0.00418948,0.0153125,6.10254e+06,466.619
0.00774,0.00133449,0.97122,0.00594791,0.0214972,6.10254e+06,484.636
0.00776,0.00183014,0.960451,0.00824088,0.0294784,6.10254e+06,503.915
0.00778,0.00245353,0.946809,0.0111683,0.0395689,6.10254e+06,524.346
0.0078,0.00322313,0.929841,0.0148369,0.0520989,6.10254e+06,545.821
0.00782,0.0041581,0.909069,0.01936,0.0674125,6.10254e+06,568.228
0.00784,0.00527805,0.884006,0.0248549,0.0858612,6.10254e+06,591.44
0.00786,0.0059135,0.869712,0.0280038,0.0963703,6.10254e+06,603.299
0.00788,0.00814955,0.819101,0.0392256,0.133524,6.10254e+06,639.59
0.0079,0.00901151,0.799489,0.0435996,0.1479,6.10254e+06,651.818
0.00792,0.0119662,0.731968,0.0587442,0.197322,6.10254e+06,688.321
0.00794,0.0142443,0.679694,0.0705421,0.235519,6.10254e+06,711.997
0.00796,0.0167539,0.621975,0.0836255,0.277645,6.10254e+06,734.612
0.00798,0.0194619,0.5596,0.0978138,0.323124,6.10254e+06,755.702
0.008,0.0223133,0.493862,0.112804,0.371021,6.10254e+06,774.863
0.00802,0.0252322,0.426547,0.128174,0.420047,6.10254e+06,791.819
0.00804,0.0281264,0.359821,0.143407,0.468645,6.10254e+06,806.473
0.00806,0.0308974,0.295991,0.157954,0.515157,6.10254e+06,818.917
0.00808,0.0334541,0.237196,0.171308,0.558042,6.10254e+06,829.404
0.0081,0.0357261,0.1851,0.183079,0.596095,6.10254e+06,838.277
0.00812,0.0376719,0.140687,0.193043,0.628598,6.10254e+06,845.891
0.00814,0.039281,0.104209,0.201154,0.655356,6.10254e+06,852.55
0.00816,0.0405696,0.0752893,0.207513,0.676628,6.10254e+06,858.484
0.00818,0.0415723,0.0531046,0.212325,0.692998,6.10254e+06,863.837
0.0082,0.0419799,0.0442122,0.21423,0.699578,6.10254e+06,866.324
0.00822,0.0428979,0.0246672,0.218336,0.714099,6.10254e+06,873.094
0.00824,0.0431206,0.0200853,0.219272,0.717522,6.10254e+06,875.13
0.00826,0.0436069,0.0105015,0.221167,0.724725,6.10254e+06,880.597
0.00828,0.0438188,0.00663906,0.221883,0.727659,6.10254e+06,883.725
0.0083,0.0439696,0.00411144,0.222317,0.729602,6.10254e+06,886.459
0.00832,0.044077,0.00249477,0.222565,0.730864,6.10254e+06,888.824
0.00834,0.0441542,0.00148393,0.222693,0.731669,6.10254e+06,890.847
0.00836,0.0442101,0.000869428,0.222748,0.732172,6.10254e+06,892.556
0.00838,0.04425,0.000523625,0.222759,0.732467,6.10254e+06,893.95
0.0084,0.0442821,0.000292442,0.222754,0.732672,6.10254e+06,895.157
0.00842,0.0443068,0.000160059,0.222737,0.732797,6.10254e+06,896.151
0.00844,0.0443259,8.57866e-05,0.222715,0.732873,6.10254e+06,896.963
0.00846,0.0443411,4.50212e-05,0.222694,0.73292,6.10254e+06,897.622
0.00848,0.0443531,2.31334e-05,0.222675,0.732949,6.10254e+06,898.151
0.0085,0.0443628,1.16375e-05,0.222659,0.732967,6.10254e+06,898.572
0.00852,0.0443706,5.73121e-06,0.222645,0.732979,6.10254e+06,898.906
0.00854,0.0443739,3.98999e-06,0.222639,0.732983,6.10254e+06,899.045
0.00856,0.0443819,1.30393e-06,0.222626,0.732991,6.10254e+06,899.371
0.00858,0.044384,8.88609e-07,0.222622,0.732993,6.10254e+06,899.455
0.0086,0.044389,2.72365e-07,0.222614,0.732997,6.10254e+06,899.649
0.00862,0.0443916,1.2055e-07,0.22261,0.732998,6.10254e+06,899.741
0.00864,0.0443935,5.22271e-08,0.222607,0.732999,6.10254e+06,899.81
0.00866,0.0443951,2.21494e-08,0.222605,0.733,6.10254e+06,899.862
0.00868,0.0443963,9.19668e-09,0.222604,0.733,6.10254e+06,899.9
0.0087,0.0443972,3.74015e-09,0.222603,0.733,6.10254e+06,899.928
0.00872,0.0443979,1.49126e-09,0.222602,0.733,6.10254e+06,899.949
0.00874,0.0443984,6.10859e-10,0.222601,0.733,6.10254e+06,899.964
0.00876,0.0443988,2.53519e-10,0.222601,0.733,6.10254e+06,899.974
0.00878,0.0443991,9.54432e-11,0.222601,0.733,6.10254e+06,899.982
0.0088,0.0443994,3.50744e-11,0.2226,0.733,6.10254e+06,899.988
0.00882,0.0443996,1.25919e-11,0.2226,0.733,6.10254e+06,899.992
0.00884,0.0443997,4.41651e-12,0.2226,0.733,6.10254e+06,899.994
0.00886,0.0443998,1.51399e-12,0.2226,0.733,6.10254e+06,899.996
0.00888,0.0443998,8.79018e-13,0.2226,0.733,6.10254e+06,899.997
0.0089,0.0443999,1.66557e-13,0.2226,0.733,6.10254e+06,899.999
0.00892,0.0443999,9.46872e-14,0.2226,0.733,6.10254e+06,899.999
0.00894,0.0443999,1.69549e-14,0.2226,0.733,6.10254e+06,900
0.00896,0.0444,5.3307e-15,0.2226,0.733,6.10254e+06,900
0.00898,0.0444,1.7035e-15,0.2226,0.733,6.10254e+06,900
0.009,0.0444,5.69237e-16,0.2226,0.733,6.10254e+06,900
0.00902,0.0444,1.99211e-16,0.2226,0.733,6.10254e+06,900
0.00904,0.0444,7.13286e-17,0.2226,0.733,6.10254e+06,900
0.00906,0.0444,2.56204e-17,0.2226,0.733,6.10254e+06,900
0.00908,0.0444,9.14149e-18,0.2226,0.733,6.10254e+06,900
0.0091,0.0444,3.22694e-18,0.2226,0.733,6.10254e+06,900
0.00912,0.0444,1.12562e-18,0.2226,0.733,6.10254e+06,900
0.00914,0.0444,3.87512e-19,0.2226,0.733,6.10254e+06,900
0.00916,0.0444,1.31693e-19,0.2226,0.733,6.10254e+06,900
0.00918,0.0444,4.41801e-20,0.2226,0.733,6.10254e+06,900
0.0092,0.0444,1.4632e-20,0.2226,0.733,6.10254e+06,900
0.00922,0.0444,8.38021e-21,0.2226,0.733,6.10254e+06,900
0.00924,0.0444,1.54461e-21,0.2226,0.733,6.10254e+06,900
0.00926,0.0444,4.92404e-22,0.2226,0.733,6.10254e+06,900
0.00928,0.0444,1.55013e-22,0.2226,0.733,6.10254e+06,900
0.0093,0.0444,4.81932e-23,0.2226,0.733,6.10254e+06,900
0.00932,0.0444,1.47982e-23,0.2226,0.733,6.10254e+06,900
0.00934,0.0444,4.48814e-24,0.2226,0.733,6.10254e+06,900
0.00936,0.0444,1.34459e-24,0.2226,0.733,6.10254e+06,900
0.00938,0.0444,3.97934e-25,0.2226,0.733,6.10254e+06,900
0.0094,0.0444,1.16348e-25,0.2226,0.733,6.10254e+06,900
0.00942,0.0444,3.36097e-26,0.2226,0.733,6.10254e+06,900
0.00944,0.0444,9.59311e-27,0.2226,0.733,6.10254e+06,900
0.00946,0.0444,2.70565e-27,0.2226,0.733,6.10254e+06,900
0.00948,0.0444,7.54107e-28,0.2226,0.733,6.10254e+06,900
0.0095,0.0444,2.07716e-28,0.2226,0.733,6.10254e+06,900
0.00952,0.0444,5.65477e-29,0.2226,0.733,6.10254e+06,900
0.00954,0.0444,1.52158e-29,0.2226,0.733,6.10254e+06,900
0.00956,0.0444,7.85859e-30,0.2226,0.733,6.10254e+06,900
0.00958,0.0444,1.06408e-30,0.2226,0.733,6.10254e+06,900
0.0096,0.0444,2.76587e-31,0.2226,0.733,6.10254e+06,900
0.00962,0.0444,7.10783e-32,0.2226,0.733,6.10254e+06,900
0.00964,0.0444,1.806e-32,0.2226,0.733,6.10254e+06,900
0.00966,0.0444,4.53734e-33,0.2226,0.733,6.10254e+06,900
0.00968,0.0444,1.12724e-33,0.2226,0.733,6.10254e+06,900