/*--------------------------------*- C++ -*----------------------------------*\
  =========                 |
  \\      /  F ield         | OpenFOAM: The Open Source CFD Toolbox
   \\    /   O peration     | Website:  https://openfoam.org
    \\  /    A nd           | Version:  8
     \\/     M anipulation  |
\*---------------------------------------------------------------------------*/
FoamFile
{
    version     2.0;
    format      ascii;
    class       volScalarField;
    location    "0";
    object      C7H16;
}
// * * * * * * * * * * * * * * * * * * * * * * * * * * * * * * * * * * * * * //

dimensions      [0 0 0 0 0 0 0];

internalField   nonuniform List<scalar> 
3000
(
0.43
0.43
0.43
0.43
0.43
0.43
0.43
0.43
0.43
0.43
0.420413
0.4165
0.412587
0.408674
0.404761
0.400938
0.397188
0.393413
0.3895
0.385587
0.381812
0.378063
0.3745
0.371167
0.367804
0.363891
0.359978
0.3565
0.353167
0.34974
0.34614
0.34254
0.339167
0.335833
0.3325
0.329167
0.32584
0.32264
0.31944
0.316167
0.312833
0.30952
0.30632
0.30312
0.29992
0.29672
0.29358
0.29078
0.28798
0.28492
0.28172
0.27858
0.27578
0.27298
0.26992
0.26672
0.263596
0.260904
0.258212
0.25546
0.25266
0.249865
0.247173
0.244481
0.241788
0.239096
0.236404
0.234038
0.231731
0.229327
0.226635
0.223942
0.2215
0.219192
0.216865
0.214173
0.211481
0.209
0.206778
0.204556
0.202333
0.200111
0.197889
0.195667
0.193444
0.191222
0.189
0.186778
0.1847
0.1827
0.1807
0.17805
0.17505
0.172917
0.17125
0.169583
0.1677
0.1657
0.1637
0.161917
0.16025
0.158583
0.1567
0.1547
0.1527
0.150917
0.14925
0.147583
0.145917
0.14425
0.142583
0.140375
0.137875
0.135917
0.13425
0.132583
0.130917
0.12925
0.127583
0.126188
0.124937
0.123688
0.122438
0.121133
0.1198
0.118467
0.116917
0.11525
0.113583
0.112133
0.1108
0.109467
0.107917
0.10625
0.104583
0.103318
0.102267
0.101218
0.100167
0.09889
0.09749
0.09609
0.09469
0.09329
0.09189
0.0907338
0.0897088
0.0886837
0.0876588
0.0864117
0.085045
0.0836783
0.0825663
0.0815913
0.0806163
0.0796413
0.0786663
0.0776912
0.0767163
0.0757413
0.0747825
0.0738325
0.0728825
0.0719325
0.0709825
0.0700325
0.0690825
0.0681325
0.0671987
0.0662738
0.0653487
0.0644237
0.063515
0.062615
0.061715
0.060815
0.0599313
0.0590563
0.0581813
0.0573062
0.056545
0.055845
0.055145
0.054445
0.053745
0.0529313
0.0520563
0.0511812
0.0503063
0.049571
0.048911
0.048251
0.047591
0.046931
0.046271
0.045611
0.044951
0.044291
0.043631
0.042984
0.042344
0.041704
0.041064
0.040424
0.0398533
0.03932
0.0387867
0.0382533
0.03772
0.0371867
0.03661
0.03601
0.03541
0.03481
0.03421
0.033675
0.033175
0.032675
0.032175
0.031675
0.031175
0.0307307
0.0303164
0.0299021
0.0294879
0.0290736
0.0286593
0.028245
0.0278307
0.0274164
0.0270021
0.0265879
0.0261736
0.0257593
0.025345
0.02494
0.02454
0.02414
0.02374
0.02334
0.02294
0.02254
0.0221806
0.0218431
0.0215056
0.0211681
0.0208306
0.0204931
0.0201556
0.0198181
0.0195122
0.0192233
0.0189344
0.0186456
0.0183567
0.0180678
0.0177789
0.01749
0.0172011
0.0169122
0.0166233
0.0163344
0.0160456
0.0157567
0.0154678
0.0151789
0.01489
0.0146011
0.0143646
0.0141563
0.0139479
0.0137396
0.0135312
0.0133229
0.0131146
0.0129062
0.0126979
0.0124896
0.0122813
0.0120729
0.0118775
0.011689
0.0115006
0.0113121
0.0111237
0.0109352
0.0107467
0.0105583
0.0103698
0.0101813
0.00999288
0.00980442
0.00961596
0.009459
0.009319
0.009179
0.009039
0.008899
0.008759
0.008619
0.008479
0.008339
0.008199
0.008059
0.007919
0.007779
0.007639
0.007499
0.007359
0.007219
0.007079
0.0069655
0.00686627
0.00676704
0.00666781
0.00656858
0.00646935
0.00637012
0.00627088
0.00617165
0.00607242
0.00597319
0.00587396
0.00577473
0.0056755
0.00557627
0.00547704
0.00537781
0.00527858
0.00517935
0.00508012
0.00498088
0.00488165
0.00478242
0.00468319
0.00458396
0.00448473
0.00441372
0.00435791
0.00430209
0.00424628
0.00419047
0.00413465
0.00407884
0.00402302
0.00396721
0.0039114
0.00385558
0.00379977
0.00374395
0.00368814
0.00363233
0.00357651
0.0035207
0.00346488
0.00340907
0.00335326
0.00329744
0.00324163
0.00318581
0.00313
0.00307419
0.00301837
0.00296256
0.00290674
0.00285093
0.00279512
0.0027393
0.00268349
0.00262767
0.00257186
0.00251605
0.00246023
0.00240442
0.0023486
0.00229279
0.00223698
0.00218116
0.00212535
0.00206953
0.00203569
0.00201368
0.00199166
0.00196965
0.00194763
0.00192562
0.00190361
0.00188159
0.00185958
0.00183756
0.00181555
0.00179354
0.00177152
0.00174951
0.00172749
0.00170548
0.00168347
0.00166145
0.00163944
0.00161742
0.00159541
0.0015734
0.00155138
0.00152937
0.00150735
0.00148534
0.00146332
0.00144131
0.0014193
0.00139728
0.00137527
0.00135325
0.00133124
0.00130923
0.00128721
0.0012652
0.00124318
0.00122117
0.00119916
0.00117714
0.00115513
0.00113311
0.0011111
0.00108909
0.00106707
0.00104506
0.00102304
0.00100103
0.000979015
0.000957001
0.000934987
0.000912973
0.000890958
0.000868944
0.00084693
0.000824916
0.000802902
0.000780888
0.000758874
0.00073686
0.000714846
0.000692832
0.000670818
0.000648804
0.000626789
0.000604775
0.000582761
0.000560747
0.000538733
0.000516719
0.000494705
0.000484391
0.000480377
0.000476362
0.000472348
0.000468334
0.00046432
0.000460306
0.000456292
0.000452278
0.000448263
0.000444249
0.000440235
0.000436221
0.000432207
0.000428193
0.000424178
0.000420164
0.00041615
0.000412136
0.000408122
0.000404108
0.000400093
0.000396079
0.000392065
0.000388051
0.000384037
0.000380023
0.000376008
0.000371994
0.00036798
0.000363966
0.000359952
0.000355938
0.000351924
0.000347909
0.000343895
0.000339881
0.000335867
0.000331853
0.000327839
0.000323824
0.00031981
0.000315796
0.000311782
0.000307768
0.000303754
0.000299739
0.000295725
0.000291711
0.000287697
0.000283683
0.000279669
0.000275655
0.00027164
0.000267626
0.000263612
0.000259598
0.000255584
0.00025157
0.000247555
0.000243541
0.000239527
0.000235513
0.000231499
0.000227485
0.00022347
0.000219456
0.000215442
0.000211428
0.000207414
0.0002034
0.000199385
0.000195371
0.000191357
0.000187343
0.000183329
0.000179315
0.000175301
0.000171286
0.000167272
0.000163258
0.000159244
0.00015523
0.000151216
0.000147201
0.000143187
0.000139173
0.000135159
0.000131145
0.000127131
0.000123116
0.000119102
0.000115088
0.000111074
0.00010706
0.000103046
9.90315E-05
9.50173E-05
9.10032E-05
0.000086989
8.29749E-05
7.89607E-05
7.49465E-05
7.09324E-05
6.69182E-05
6.29041E-05
5.88899E-05
5.48758E-05
5.08616E-05
4.68474E-05
4.28333E-05
3.88191E-05
0.000034805
3.32694E-05
3.30684E-05
3.28674E-05
3.26664E-05
3.24654E-05
3.22644E-05
3.20634E-05
3.18624E-05
3.16614E-05
3.14604E-05
3.12594E-05
3.10584E-05
3.08574E-05
3.06564E-05
3.04554E-05
3.02544E-05
3.00535E-05
2.98525E-05
2.96515E-05
2.94505E-05
2.92495E-05
2.90485E-05
2.88475E-05
2.86465E-05
2.84455E-05
2.82445E-05
2.80435E-05
2.78425E-05
2.76415E-05
2.74405E-05
2.72395E-05
2.70385E-05
2.68375E-05
2.66366E-05
2.64356E-05
2.62346E-05
2.60336E-05
2.58326E-05
2.56316E-05
2.54306E-05
2.52296E-05
2.50286E-05
2.48276E-05
2.46266E-05
2.44256E-05
2.42246E-05
2.40236E-05
2.38226E-05
2.36216E-05
2.34207E-05
2.32197E-05
2.30187E-05
2.28177E-05
2.26167E-05
2.24157E-05
2.22147E-05
2.20137E-05
2.18127E-05
2.16117E-05
2.14107E-05
2.12097E-05
2.10087E-05
2.08077E-05
2.06067E-05
2.04057E-05
2.02047E-05
2.00038E-05
1.98028E-05
1.96018E-05
1.94008E-05
1.91998E-05
1.89988E-05
1.87978E-05
1.85968E-05
1.83958E-05
1.81948E-05
1.79938E-05
1.77928E-05
1.75918E-05
1.73908E-05
1.71898E-05
1.69888E-05
1.67879E-05
1.65869E-05
1.63859E-05
1.61849E-05
1.59839E-05
1.57829E-05
1.55819E-05
1.53809E-05
1.51799E-05
1.49789E-05
1.47779E-05
1.45769E-05
1.43759E-05
1.41749E-05
1.39739E-05
1.37729E-05
1.35719E-05
0.000013371
0.00001317
0.000012969
0.000012768
0.000012567
0.000012366
0.000012165
0.000011964
0.000011763
0.000011562
0.000011361
0.00001116
0.000010959
0.000010758
0.000010557
0.000010356
1.01551E-05
9.95406E-06
9.75306E-06
9.55207E-06
9.35108E-06
9.15008E-06
8.94909E-06
8.74809E-06
8.5471E-06
8.34611E-06
8.14511E-06
7.94412E-06
7.74312E-06
7.54213E-06
7.34114E-06
7.14014E-06
6.93915E-06
6.73815E-06
6.53716E-06
6.33617E-06
6.13517E-06
5.93418E-06
5.73318E-06
5.53219E-06
5.3312E-06
5.1302E-06
4.92921E-06
4.72821E-06
4.52722E-06
4.32623E-06
4.12523E-06
3.92424E-06
3.72324E-06
3.52225E-06
3.32126E-06
3.12026E-06
2.91927E-06
2.71828E-06
2.51728E-06
2.31629E-06
2.11529E-06
1.9143E-06
1.71331E-06
1.51231E-06
1.31132E-06
1.11032E-06
9.0933E-07
7.08336E-07
5.07342E-07
3.06348E-07
2.35296E-07
2.34214E-07
2.33131E-07
0.000000232
0.000000231
2.29884E-07
2.28801E-07
2.27719E-07
2.26636E-07
2.25554E-07
2.24471E-07
2.23389E-07
2.22306E-07
2.21223E-07
2.20141E-07
2.19058E-07
0.000000218
2.16893E-07
2.15811E-07
2.14728E-07
2.13646E-07
2.12563E-07
2.11481E-07
2.10398E-07
2.09316E-07
2.08233E-07
2.07151E-07
2.06068E-07
0.000000205
2.03903E-07
2.0282E-07
2.01738E-07
2.00655E-07
1.99573E-07
1.9849E-07
1.97408E-07
1.96325E-07
1.95243E-07
1.9416E-07
1.93078E-07
0.000000192
1.90913E-07
1.8983E-07
1.88748E-07
1.87665E-07
1.86583E-07
1.855E-07
1.84417E-07
1.83335E-07
1.82252E-07
1.8117E-07
1.80087E-07
0.000000179
1.77922E-07
1.7684E-07
1.75757E-07
1.74675E-07
1.73592E-07
1.7251E-07
1.71427E-07
1.70345E-07
1.69262E-07
1.6818E-07
1.67097E-07
0.000000166
1.64932E-07
1.63849E-07
1.62767E-07
1.61684E-07
1.60602E-07
1.59519E-07
1.58437E-07
1.57354E-07
1.56272E-07
1.55189E-07
1.54107E-07
0.000000153
1.51942E-07
1.50859E-07
1.49777E-07
1.48694E-07
1.47611E-07
1.46529E-07
1.45446E-07
1.44364E-07
1.43281E-07
1.42199E-07
1.41116E-07
0.00000014
0.000000139
1.37869E-07
1.36786E-07
1.35704E-07
1.34621E-07
1.33539E-07
1.32456E-07
1.31374E-07
1.30291E-07
1.29208E-07
1.28126E-07
0.000000127
0.000000126
1.24878E-07
1.23796E-07
1.22713E-07
1.21631E-07
1.20548E-07
1.19466E-07
1.18383E-07
1.17301E-07
1.16218E-07
1.15136E-07
1.14053E-07
0.000000113
1.11888E-07
1.10805E-07
1.09723E-07
1.0864E-07
1.07558E-07
1.06475E-07
1.05393E-07
1.0431E-07
1.03228E-07
1.02145E-07
1.01063E-07
0.0000001
9.88976E-08
9.78151E-08
9.67326E-08
9.56501E-08
9.45675E-08
9.3485E-08
9.24025E-08
9.13199E-08
9.02374E-08
8.91549E-08
8.80724E-08
0.000000087
8.59073E-08
8.48248E-08
8.37422E-08
8.26597E-08
8.15772E-08
8.04946E-08
7.94121E-08
7.83296E-08
7.72471E-08
7.61645E-08
7.5082E-08
0.000000074
7.29169E-08
7.18344E-08
7.07519E-08
6.96694E-08
6.85868E-08
6.75043E-08
6.64218E-08
6.53392E-08
6.42567E-08
6.31742E-08
6.20916E-08
0.000000061
5.99266E-08
5.88441E-08
5.77615E-08
5.6679E-08
5.55965E-08
5.45139E-08
5.34314E-08
5.23489E-08
5.12663E-08
5.01838E-08
4.91013E-08
0.000000048
4.69362E-08
4.58537E-08
4.47712E-08
4.36886E-08
4.26061E-08
4.15236E-08
4.04411E-08
3.93585E-08
3.8276E-08
3.71935E-08
3.61109E-08
0.000000035
3.39459E-08
3.28633E-08
3.17808E-08
3.06983E-08
2.96158E-08
2.85332E-08
2.74507E-08
2.63682E-08
2.52856E-08
2.42031E-08
2.31206E-08
0.000000022
0.000000021
1.9873E-08
1.87905E-08
1.77079E-08
1.66254E-08
1.55429E-08
1.44603E-08
1.33778E-08
1.22953E-08
1.12128E-08
1.01302E-08
0.000000009
0.000000008
6.88264E-09
5.80011E-09
4.71758E-09
3.63505E-09
2.55252E-09
1.46999E-09
3.87465E-10
8.55847E-12
8.52534E-12
8.49221E-12
8.45908E-12
8.42596E-12
8.39283E-12
8.3597E-12
8.32658E-12
8.29345E-12
8.26032E-12
8.22719E-12
8.19407E-12
8.16094E-12
8.12781E-12
8.09468E-12
8.06156E-12
8.02843E-12
7.9953E-12
7.96217E-12
7.92905E-12
7.89592E-12
7.86279E-12
7.82966E-12
7.79654E-12
7.76341E-12
7.73028E-12
7.69715E-12
7.66403E-12
7.6309E-12
7.59777E-12
7.56464E-12
7.53152E-12
7.49839E-12
7.46526E-12
7.43214E-12
7.39901E-12
7.36588E-12
7.33275E-12
7.29963E-12
7.2665E-12
7.23337E-12
7.20024E-12
7.16712E-12
7.13399E-12
7.10086E-12
7.06773E-12
7.03461E-12
7.00148E-12
6.96835E-12
6.93522E-12
6.9021E-12
6.86897E-12
6.83584E-12
6.80271E-12
6.76959E-12
6.73646E-12
6.70333E-12
6.6702E-12
6.63708E-12
6.60395E-12
6.57082E-12
6.53769E-12
6.50457E-12
6.47144E-12
6.43831E-12
6.40519E-12
6.37206E-12
6.33893E-12
6.3058E-12
6.27268E-12
6.23955E-12
6.20642E-12
6.17329E-12
6.14017E-12
6.10704E-12
6.07391E-12
6.04078E-12
6.00766E-12
5.97453E-12
5.9414E-12
5.90827E-12
5.87515E-12
5.84202E-12
5.80889E-12
5.77576E-12
5.74264E-12
5.70951E-12
5.67638E-12
5.64325E-12
5.61013E-12
5.577E-12
5.54387E-12
5.51075E-12
5.47762E-12
5.44449E-12
5.41136E-12
5.37824E-12
5.34511E-12
5.31198E-12
5.27885E-12
5.24573E-12
5.2126E-12
5.17947E-12
5.14634E-12
5.11322E-12
5.08009E-12
5.04696E-12
5.01383E-12
4.98071E-12
4.94758E-12
4.91445E-12
4.88132E-12
4.8482E-12
4.81507E-12
4.78194E-12
4.74881E-12
4.71569E-12
4.68256E-12
4.64943E-12
4.61631E-12
4.58318E-12
4.55005E-12
4.51692E-12
4.4838E-12
4.45067E-12
4.41754E-12
4.38441E-12
4.35129E-12
4.31816E-12
4.28503E-12
4.2519E-12
4.21878E-12
4.18565E-12
4.15252E-12
4.11939E-12
4.08627E-12
4.05314E-12
4.02001E-12
3.98688E-12
3.95376E-12
3.92063E-12
3.8875E-12
3.85437E-12
3.82125E-12
3.78812E-12
3.75499E-12
3.72186E-12
3.68874E-12
3.65561E-12
3.62248E-12
3.58936E-12
3.55623E-12
3.5231E-12
3.48997E-12
3.45685E-12
3.42372E-12
3.39059E-12
3.35746E-12
3.32434E-12
3.29121E-12
3.25808E-12
3.22495E-12
3.19183E-12
3.1587E-12
3.12557E-12
3.09244E-12
3.05932E-12
3.02619E-12
2.99306E-12
2.95993E-12
2.92681E-12
2.89368E-12
2.86055E-12
2.82742E-12
2.7943E-12
2.76117E-12
2.72804E-12
2.69492E-12
2.66179E-12
2.62866E-12
2.59553E-12
2.56241E-12
2.52928E-12
2.49615E-12
2.46302E-12
2.4299E-12
2.39677E-12
2.36364E-12
2.33051E-12
2.29739E-12
2.26426E-12
2.23113E-12
2.198E-12
2.16488E-12
2.13175E-12
2.09862E-12
2.06549E-12
2.03237E-12
1.99924E-12
1.96611E-12
1.93298E-12
1.89986E-12
1.86673E-12
1.8336E-12
1.80047E-12
1.76735E-12
1.73422E-12
1.70109E-12
1.66797E-12
1.63484E-12
1.60171E-12
1.56858E-12
1.53546E-12
1.50233E-12
1.4692E-12
1.43607E-12
1.40295E-12
1.36982E-12
1.33669E-12
1.30356E-12
1.27044E-12
1.23731E-12
1.20418E-12
1.17105E-12
1.13793E-12
1.1048E-12
1.07167E-12
1.03854E-12
1.00542E-12
9.7229E-13
9.39162E-13
9.06035E-13
8.72907E-13
8.3978E-13
8.06653E-13
7.73525E-13
7.40398E-13
7.0727E-13
6.74143E-13
6.41015E-13
6.07888E-13
5.74761E-13
5.41633E-13
5.08506E-13
4.75378E-13
4.42251E-13
4.09124E-13
3.75996E-13
3.42869E-13
3.09741E-13
2.76614E-13
2.43486E-13
2.10359E-13
1.77232E-13
1.44104E-13
1.10977E-13
7.78494E-14
4.4722E-14
1.15946E-14
4.49E-21
4.49E-21
4.49E-21
4.49E-21
4.49E-21
4.49E-21
4.49E-21
4.49E-21
4.49E-21
4.49E-21
4.49E-21
4.49E-21
4.49E-21
4.49E-21
4.49E-21
4.49E-21
4.49E-21
4.49E-21
4.49E-21
4.49E-21
4.49E-21
4.49E-21
4.49E-21
4.49E-21
4.49E-21
4.49E-21
4.49E-21
4.49E-21
4.49E-21
4.49E-21
4.49E-21
4.49E-21
4.49E-21
4.49E-21
4.49E-21
4.49E-21
4.49E-21
4.49E-21
4.49E-21
4.49E-21
4.49E-21
4.49E-21
4.49E-21
4.49E-21
4.49E-21
4.49E-21
4.49E-21
4.49E-21
4.49E-21
4.49E-21
4.49E-21
4.49E-21
4.49E-21
4.49E-21
4.49E-21
4.49E-21
4.49E-21
4.49E-21
4.49E-21
4.49E-21
4.49E-21
4.49E-21
4.49E-21
4.49E-21
4.49E-21
4.49E-21
4.49E-21
4.49E-21
4.49E-21
4.49E-21
4.49E-21
4.49E-21
4.49E-21
4.49E-21
4.49E-21
4.49E-21
4.49E-21
4.49E-21
4.49E-21
4.49E-21
4.49E-21
4.49E-21
4.49E-21
4.49E-21
4.49E-21
4.49E-21
4.49E-21
4.49E-21
4.49E-21
4.49E-21
4.49E-21
4.49E-21
4.49E-21
4.49E-21
4.49E-21
4.49E-21
4.49E-21
4.49E-21
4.49E-21
4.49E-21
4.49E-21
4.49E-21
4.49E-21
4.49E-21
4.49E-21
4.49E-21
4.49E-21
4.49E-21
4.49E-21
4.49E-21
4.49E-21
4.49E-21
4.49E-21
4.49E-21
4.49E-21
4.49E-21
4.49E-21
4.49E-21
4.49E-21
4.49E-21
4.49E-21
4.49E-21
4.49E-21
4.49E-21
4.49E-21
4.49E-21
4.49E-21
4.49E-21
4.49E-21
4.49E-21
4.49E-21
4.49E-21
4.49E-21
4.49E-21
4.49E-21
4.49E-21
4.49E-21
4.49E-21
4.49E-21
4.49E-21
4.49E-21
4.49E-21
4.49E-21
4.49E-21
4.49E-21
4.49E-21
4.49E-21
4.49E-21
4.49E-21
4.49E-21
4.49E-21
4.49E-21
4.49E-21
4.49E-21
4.49E-21
4.49E-21
4.49E-21
4.49E-21
4.49E-21
4.49E-21
4.49E-21
4.49E-21
4.49E-21
4.49E-21
4.49E-21
4.49E-21
4.49E-21
4.49E-21
4.49E-21
4.49E-21
4.49E-21
4.49E-21
4.49E-21
4.49E-21
4.49E-21
4.49E-21
4.49E-21
4.49E-21
4.49E-21
4.49E-21
4.49E-21
4.49E-21
4.49E-21
4.49E-21
4.49E-21
4.49E-21
4.49E-21
4.49E-21
4.49E-21
4.49E-21
4.49E-21
4.49E-21
4.49E-21
4.49E-21
4.49E-21
4.49E-21
4.49E-21
4.49E-21
4.49E-21
4.49E-21
4.49E-21
4.49E-21
4.49E-21
4.49E-21
4.49E-21
4.49E-21
4.49E-21
4.49E-21
4.49E-21
4.49E-21
4.49E-21
4.49E-21
4.49E-21
4.49E-21
4.49E-21
4.49E-21
4.49E-21
4.49E-21
4.49E-21
4.49E-21
4.49E-21
4.49E-21
4.49E-21
4.49E-21
4.49E-21
4.49E-21
4.49E-21
4.49E-21
4.49E-21
4.49E-21
4.49E-21
4.49E-21
4.49E-21
4.49E-21
4.49E-21
4.49E-21
4.49E-21
4.49E-21
4.49E-21
4.49E-21
4.49E-21
4.49E-21
4.49E-21
4.49E-21
4.49E-21
4.49E-21
4.49E-21
4.49E-21
4.49E-21
4.49E-21
4.49E-21
4.49E-21
4.49E-21
4.49E-21
4.49E-21
4.49E-21
4.49E-21
4.49E-21
4.49E-21
4.49E-21
4.49E-21
4.49E-21
4.49E-21
4.49E-21
4.49E-21
4.49E-21
4.49E-21
4.49E-21
4.49E-21
4.49E-21
4.49E-21
4.49E-21
4.49E-21
4.49E-21
4.49E-21
4.49E-21
4.49E-21
4.49E-21
4.49E-21
4.49E-21
4.49E-21
4.49E-21
4.49E-21
4.49E-21
4.49E-21
4.49E-21
4.49E-21
4.49E-21
4.49E-21
4.49E-21
4.49E-21
4.49E-21
4.49E-21
4.49E-21
4.49E-21
4.49E-21
4.49E-21
4.49E-21
4.49E-21
4.49E-21
4.49E-21
4.49E-21
4.49E-21
4.49E-21
4.49E-21
4.49E-21
4.49E-21
4.49E-21
4.49E-21
4.49E-21
4.49E-21
4.49E-21
4.49E-21
4.49E-21
4.49E-21
4.49E-21
4.49E-21
4.49E-21
4.49E-21
4.49E-21
4.49E-21
4.49E-21
4.49E-21
4.49E-21
4.49E-21
4.49E-21
4.49E-21
4.49E-21
4.49E-21
4.49E-21
4.49E-21
4.49E-21
4.49E-21
4.49E-21
4.49E-21
4.49E-21
4.49E-21
4.49E-21
4.49E-21
4.49E-21
4.49E-21
4.49E-21
4.49E-21
4.49E-21
4.49E-21
4.49E-21
4.49E-21
4.49E-21
4.49E-21
4.49E-21
4.49E-21
4.49E-21
4.49E-21
4.49E-21
4.49E-21
4.49E-21
4.49E-21
4.49E-21
4.49E-21
4.49E-21
4.49E-21
4.49E-21
4.49E-21
4.49E-21
4.49E-21
4.49E-21
4.49E-21
4.49E-21
4.49E-21
4.49E-21
4.49E-21
4.49E-21
4.49E-21
4.49E-21
4.49E-21
4.49E-21
4.49E-21
4.49E-21
4.49E-21
4.49E-21
4.49E-21
4.49E-21
4.49E-21
4.49E-21
4.49E-21
4.49E-21
4.49E-21
4.49E-21
4.49E-21
4.49E-21
4.49E-21
4.49E-21
4.49E-21
4.49E-21
4.49E-21
4.49E-21
4.49E-21
4.49E-21
4.49E-21
4.49E-21
4.49E-21
4.49E-21
4.49E-21
4.49E-21
4.49E-21
4.49E-21
4.49E-21
4.49E-21
4.49E-21
4.49E-21
4.49E-21
4.49E-21
4.49E-21
4.49E-21
4.49E-21
4.49E-21
4.49E-21
4.49E-21
4.49E-21
4.49E-21
4.49E-21
4.49E-21
4.49E-21
4.49E-21
4.49E-21
4.49E-21
4.49E-21
4.49E-21
4.49E-21
4.49E-21
4.49E-21
4.49E-21
4.49E-21
4.49E-21
4.49E-21
4.49E-21
4.49E-21
4.49E-21
4.49E-21
4.49E-21
4.49E-21
4.49E-21
4.49E-21
4.49E-21
4.49E-21
4.49E-21
4.49E-21
4.49E-21
4.49E-21
4.49E-21
4.49E-21
4.49E-21
4.49E-21
4.49E-21
4.49E-21
4.49E-21
4.49E-21
4.49E-21
4.49E-21
4.49E-21
4.49E-21
4.49E-21
4.49E-21
4.49E-21
4.49E-21
4.49E-21
4.49E-21
4.49E-21
4.49E-21
4.49E-21
4.49E-21
4.49E-21
4.49E-21
4.49E-21
4.49E-21
4.49E-21
4.49E-21
4.49E-21
4.49E-21
4.49E-21
4.49E-21
4.49E-21
4.49E-21
4.49E-21
4.49E-21
4.49E-21
4.49E-21
4.49E-21
4.49E-21
4.49E-21
4.49E-21
4.49E-21
4.49E-21
4.49E-21
4.49E-21
4.49E-21
4.49E-21
4.49E-21
4.49E-21
4.49E-21
4.49E-21
4.49E-21
4.49E-21
4.49E-21
4.49E-21
4.49E-21
4.49E-21
4.49E-21
4.49E-21
4.49E-21
4.49E-21
4.49E-21
4.49E-21
4.49E-21
4.49E-21
4.49E-21
4.49E-21
4.49E-21
4.49E-21
4.49E-21
4.49E-21
4.49E-21
4.49E-21
4.49E-21
4.49E-21
4.49E-21
4.49E-21
4.49E-21
4.49E-21
4.49E-21
4.49E-21
4.49E-21
4.49E-21
4.49E-21
4.49E-21
4.49E-21
4.49E-21
4.49E-21
4.49E-21
4.49E-21
4.49E-21
4.49E-21
4.49E-21
4.49E-21
4.49E-21
4.49E-21
4.49E-21
4.49E-21
4.49E-21
4.49E-21
4.49E-21
4.49E-21
4.49E-21
4.49E-21
4.49E-21
4.49E-21
4.49E-21
4.49E-21
4.49E-21
4.49E-21
4.49E-21
4.49E-21
4.49E-21
4.49E-21
4.49E-21
4.49E-21
4.49E-21
4.49E-21
4.49E-21
4.49E-21
4.49E-21
4.49E-21
4.49E-21
4.49E-21
4.49E-21
4.49E-21
4.49E-21
4.49E-21
4.49E-21
4.49E-21
4.49E-21
4.49E-21
4.49E-21
4.49E-21
4.49E-21
4.49E-21
4.49E-21
4.49E-21
4.49E-21
4.49E-21
4.49E-21
4.49E-21
4.49E-21
4.49E-21
4.49E-21
4.49E-21
4.49E-21
4.49E-21
4.49E-21
4.49E-21
4.49E-21
4.49E-21
4.49E-21
4.49E-21
4.49E-21
4.49E-21
4.49E-21
4.49E-21
4.49E-21
4.49E-21
4.49E-21
4.49E-21
4.49E-21
4.49E-21
4.49E-21
4.49E-21
4.49E-21
4.49E-21
4.49E-21
4.49E-21
4.49E-21
4.49E-21
4.49E-21
4.49E-21
4.49E-21
4.49E-21
4.49E-21
4.49E-21
4.49E-21
4.49E-21
4.49E-21
4.49E-21
4.49E-21
4.49E-21
4.49E-21
4.49E-21
4.49E-21
4.49E-21
4.49E-21
4.49E-21
4.49E-21
4.49E-21
4.49E-21
4.49E-21
4.49E-21
4.49E-21
4.49E-21
4.49E-21
4.49E-21
4.49E-21
4.49E-21
4.49E-21
4.49E-21
4.49E-21
4.49E-21
4.49E-21
4.49E-21
4.49E-21
4.49E-21
4.49E-21
4.49E-21
4.49E-21
4.49E-21
4.49E-21
4.49E-21
4.49E-21
4.49E-21
4.49E-21
4.49E-21
4.49E-21
4.49E-21
4.49E-21
4.49E-21
4.49E-21
4.49E-21
4.49E-21
4.49E-21
4.49E-21
4.49E-21
4.49E-21
4.49E-21
4.49E-21
4.49E-21
4.49E-21
4.49E-21
4.49E-21
4.49E-21
4.49E-21
4.49E-21
4.49E-21
4.49E-21
4.49E-21
4.49E-21
4.49E-21
4.49E-21
4.49E-21
4.49E-21
4.49E-21
4.49E-21
4.49E-21
4.49E-21
4.49E-21
4.49E-21
4.49E-21
4.49E-21
4.49E-21
4.49E-21
4.49E-21
4.49E-21
4.49E-21
4.49E-21
4.49E-21
4.49E-21
4.49E-21
4.49E-21
4.49E-21
4.49E-21
4.49E-21
4.49E-21
4.49E-21
4.49E-21
4.49E-21
4.49E-21
4.49E-21
4.49E-21
4.49E-21
4.49E-21
4.49E-21
4.49E-21
4.49E-21
4.49E-21
4.49E-21
4.49E-21
4.49E-21
4.49E-21
4.49E-21
4.49E-21
4.49E-21
4.49E-21
4.49E-21
4.49E-21
4.49E-21
4.49E-21
4.49E-21
4.49E-21
4.49E-21
4.49E-21
4.49E-21
4.49E-21
4.49E-21
4.49E-21
4.49E-21
4.49E-21
4.49E-21
4.49E-21
4.49E-21
4.49E-21
4.49E-21
4.49E-21
4.49E-21
4.49E-21
4.49E-21
4.49E-21
4.49E-21
4.49E-21
4.49E-21
4.49E-21
4.49E-21
4.49E-21
4.49E-21
4.49E-21
4.49E-21
4.49E-21
4.49E-21
4.49E-21
4.49E-21
4.49E-21
4.49E-21
4.49E-21
4.49E-21
4.49E-21
4.49E-21
4.49E-21
4.49E-21
4.49E-21
4.49E-21
4.49E-21
4.49E-21
4.49E-21
4.49E-21
4.49E-21
4.49E-21
4.49E-21
4.49E-21
0
0
0
0
0
0
0
0
0
0
0
0
0
0
0
0
0
0
0
0
0
0
0
0
0
0
0
0
0
0
0
0
0
0
0
0
0
0
0
0
0
0
0
0
0
0
0
0
0
0
0
0
0
0
0
0
0
0
0
0
0
0
0
0
0
0
0
0
0
0
0
0
0
0
0
0
0
0
0
0
0
0
0
0
0
0
0
0
0
0
0
0
0
0
0
0
0
0
0
0
0
0
0
0
0
0
0
0
0
0
0
0
0
0
0
0
0
0
0
0
0
0
0
0
0
0
0
0
0
0
0
0
0
0
0
0
0
0
0
0
0
0
0
0
0
0
0
0
0
0
0
0
0
0
0
0
0
0
0
0
0
0
0
0
0
0
0
0
0
0
0
0
0
0
0
0
0
0
0
0
0
0
0
0
0
0
0
0
0
0
0
0
0
0
0
0
0
0
0
0
0
0
0
0
0
0
0
0
0
0
0
0
0
0
0
0
0
0
0
0
0
0
0
0
0
0
0
0
0
0
0
0
0
0
0
0
0
0
0
0
0
0
0
0
0
0
0
0
0
0
0
0
0
0
0
0
0
0
0
0
0
0
0
0
0
0
0
0
0
0
0
0
0
0
0
0
0
0
0
0
0
0
0
0
0
0
0
0
0
0
0
0
0
0
0
0
0
0
0
0
0
0
0
0
0
0
0
0
0
0
0
0
0
0
0
0
0
0
0
0
0
0
0
0
0
0
0
0
0
0
0
0
0
0
0
0
0
0
0
0
0
0
0
0
0
0
0
0
0
0
0
0
0
0
0
0
0
0
0
0
0
0
0
0
0
0
0
0
0
0
0
0
0
0
0
0
0
0
0
0
0
0
0
0
0
0
0
0
0
0
0
0
0
0
0
0
0
0
0
0
0
0
0
0
0
0
0
0
0
0
0
0
0
0
0
0
0
0
0
0
0
0
0
0
0
0
0
0
0
0
0
0
0
0
0
0
0
0
0
0
0
0
0
0
0
0
0
0
0
0
0
0
0
0
0
0
0
0
0
0
0
0
0
0
0
0
0
0
0
0
0
0
0
0
0
0
0
0
0
0
0
0
0
0
0
0
0
0
0
0
0
0
0
0
0
0
0
0
0
0
0
0
0
0
0
0
0
0
0
0
0
0
0
0
0
0
0
0
0
0
0
0
0
0
0
0
0
0
0
0
0
0
0
0
0
0
0
0
0
0
0
0
0
0
0
0
0
0
0
0
0
0
0
0
0
0
0
0
0
0
0
0
0
0
0
0
0
0
0
0
0
0
0
0
0
0
0
0
0
0
0
0
0
0
0
0
0
0
0
0
0
0
0
0
0
0
0
0
0
0
0
0
0
0
0
0
0
0
0
0
0
0
0
0
0
0
0
0
0
0
0
0
0
0
0
0
0
0
0
0
0
0
0
0
0
0
0
0
0
0
0
0
0
0
0
0
0
0
0
0
0
0
0
0
0
0
0
0
0
0
0
0
0
0
0
0
0
0
0
0
0
0
0
0
0
0
0
0
0
0
0
0
0
0
0
0
0
0
0
0
0
0
0
0
0
0
0
0
0
0
0
0
0
0
0
0
0
0
0
0
0
0
0
0
0
0
0
0
0
0
0
0
0
0
0
0
0
0
0
0
0
0
0
0
0
0
0
0
0
0
0
0
0
0
0
0
0
0
0
0
0
0
0
0
0
0
0
0
0
0
0
0
0
0
0
0
0
0
0
0
0
0
0
0
0
0
0
0
0
0
0
0
0
0
0
0
0
0
0
0
0
0
0
0
0
0
0
0
0
0
0
0
0
0
0
0
0
0
0
0
0
0
0
0
0
0
0
0
0
0
0
0
0
0
0
0
0
0
0
0
0
0
0
0
0
0
0
0
0
0
0
0
0
0
0
0
0
0
0
0
0
0
0
0
0
0
0
0
0
0
0
0
0
0
0
0
0
0
0
0
0
0
0
0
0
0
0
0
0
0
0
0
0
0
0
0
0
0
0
0
0
0
0
0
0
0
0
0
0
0
0
0
0
0
0
0
0
0
0
0
0
0
0
0
0
0
0
0
0
0
0
0
0
0
0
0
0
0
0
0
0
0
0
0
0
0
0
0
0
0
0
0
0
0
0
0
0
0
0
0
0
0
0
0
0
0
0
0
0
0
0
0
0
0
0
0
0
0
0
0
0
0
0
0
0
0
0
0
0
0
0
0
0
0
0
0
0
0
0
0
0
0
0
0
0
0
0
0
0
0
)
;

boundaryField
{
    empty
    {
        type            empty;
    }
    right
    {
        type            zeroGradient;
    }
    top
    {
        type            zeroGradient;
    }
    left
    {
        type            zeroGradient;
    }
    bottom
    {
        type            zeroGradient;
    }
}


// ************************************************************************* //
