x,NH3,C7H16,O2,N2,p,T
0,1.67982e-322,1,0,0,6.10255e+06,363
2e-05,0,1,0,2.22045e-16,6.10255e+06,363
4e-05,1.63042e-322,1,1.4822e-322,0,6.10255e+06,363
6e-05,1.58101e-322,1,1.33398e-322,1.11022e-16,6.10255e+06,363
8e-05,3.45846e-323,1,0,3.33067e-16,6.10255e+06,363
0.0001,0,1,1.72923e-322,3.33067e-16,6.10255e+06,363
0.00012,0,1,0,5.55112e-16,6.10255e+06,363
0.00014,0,1,0,4.44089e-16,6.10255e+06,363
0.00016,0,1,1.58101e-322,3.33067e-16,6.10255e+06,363
0.00018,0,1,0,3.33067e-16,6.10255e+06,363
0.0002,1.97626e-323,1,0,4.44089e-16,6.10255e+06,363
0.00022,2.47033e-323,1,0,2.22045e-16,6.10255e+06,363
0.00024,0,1,1.5316e-322,2.22045e-16,6.10255e+06,363
0.00026,1.38338e-322,1,0,4.44089e-16,6.10255e+06,363
0.00028,3.95253e-323,1,1.33398e-322,1.11022e-16,6.10255e+06,363
0.0003,1.28457e-322,1,0,3.33067e-16,6.10255e+06,363
0.00032,1.43279e-322,1,0,1.11022e-16,6.10255e+06,363
0.00034,2.47033e-323,1,0,3.33067e-16,6.10255e+06,363
0.00036,1.33398e-322,1,0,2.22045e-16,6.10255e+06,363
0.00038,1.97626e-323,1,0,3.33067e-16,6.10255e+06,363
0.0004,1.67982e-322,1,0,6.66134e-16,6.10255e+06,363
0.00042,0,1,1.23516e-322,4.44089e-16,6.10255e+06,363
0.00044,0,1,0,3.33067e-16,6.10255e+06,363
0.00046,0,1,1.43279e-322,3.33067e-16,6.10255e+06,363
0.00048,0,1,1.58101e-322,3.33067e-16,6.10255e+06,363
0.0005,0,1,0,7.77156e-16,6.10255e+06,363
0.00052,1.38338e-322,1,0,8.88178e-16,6.10255e+06,363
0.00054,0,1,0,1.55431e-15,6.10255e+06,363
0.00056,1.38338e-322,1,1.38338e-322,1.55431e-15,6.10255e+06,363
0.00058,0,1,0,1.22125e-15,6.10255e+06,363
0.0006,0,1,1.33398e-322,1.22125e-15,6.10255e+06,363
0.00062,0,1,3.70549e-322,1.33227e-15,6.10255e+06,363
0.00064,0,1,6.42285e-322,1.33227e-15,6.10255e+06,363
0.00066,0,1,3.31024e-322,8.88178e-16,6.10255e+06,363
0.00068,1.58101e-322,1,6.62048e-322,5.55112e-16,6.10255e+06,363
0.0007,2.47033e-323,1,3.50787e-322,8.88178e-16,6.10255e+06,363
0.00072,0,1,6.66989e-322,7.77156e-16,6.10255e+06,363
0.00074,0,1,4.5454e-322,1.33227e-15,6.10255e+06,363
0.00076,0,1,6.52167e-322,1.22125e-15,6.10255e+06,363
0.00078,0,1,8.54734e-322,1.11022e-15,6.10255e+06,363
0.0008,0,1,1.16599e-321,1.33227e-15,6.10255e+06,363
0.00082,0,1,1.15117e-321,9.99201e-16,6.10255e+06,363
0.00084,0,1,1.13141e-321,1.44329e-15,6.10255e+06,363
0.00086,0,1,1.35868e-321,8.88178e-16,6.10255e+06,363
0.00088,2.47033e-323,1,1.13141e-321,1.44329e-15,6.10255e+06,363
0.0009,0,1,1.36856e-321,1.44329e-15,6.10255e+06,363
0.00092,0,1,1.99603e-321,9.99201e-16,6.10255e+06,363
0.00094,0,1,2.50491e-321,1.33227e-15,6.10255e+06,363
0.00096,0,1,2.54444e-321,9.99201e-16,6.10255e+06,363
0.00098,0,1,2.49009e-321,8.88178e-16,6.10255e+06,363
0.001,0,1,2.50985e-321,8.88178e-16,6.10255e+06,363
0.00102,0,1,2.55926e-321,7.77156e-16,6.10255e+06,363
0.00104,0,1,2.53456e-321,9.99201e-16,6.10255e+06,363
0.00106,0,1,2.56914e-321,8.88178e-16,6.10255e+06,363
0.00108,9.88131e-324,1,2.65313e-321,1.22125e-15,6.10255e+06,363
0.0011,1.23516e-322,1,2.66301e-321,8.88178e-16,6.10255e+06,363
0.00112,1.28457e-322,1,3.07309e-321,9.99201e-16,6.10255e+06,363
0.00114,0,1,3.16696e-321,1.11022e-15,6.10255e+06,363
0.00116,1.63042e-322,1,3.16696e-321,8.88178e-16,6.10255e+06,363
0.00118,0,1,3.19166e-321,1.11022e-15,6.10255e+06,363
0.0012,0,1,3.23613e-321,7.77156e-16,6.10255e+06,363
0.00122,1.38338e-322,1,3.13732e-321,6.66134e-16,6.10255e+06,363
0.00124,0,1,3.24601e-321,8.88178e-16,6.10255e+06,363
0.00126,0,1,3.17684e-321,1.22125e-15,6.10255e+06,363
0.00128,1.5316e-322,1,3.13732e-321,1.11022e-15,6.10255e+06,363
0.0013,0,1,3.24107e-321,7.77156e-16,6.10255e+06,363
0.00132,0,1,3.11261e-321,8.88178e-16,6.10255e+06,363
0.00134,0,1,3.21143e-321,7.77156e-16,6.10255e+06,363
0.00136,0,1,3.11755e-321,7.77156e-16,6.10255e+06,363
0.00138,0,1,3.23119e-321,6.66134e-16,6.10255e+06,363
0.0014,0,1,3.32506e-321,5.55112e-16,6.10255e+06,363
0.00142,0,1,3.10767e-321,8.88178e-16,6.10255e+06,363
0.00144,0,1,3.1966e-321,4.44089e-16,6.10255e+06,363
0.00146,0,1,3.17684e-321,0,6.10255e+06,363
0.00148,1.4822e-322,1,3.21637e-321,1.11022e-16,6.10255e+06,363
0.0015,1.63042e-322,1,3.19166e-321,1.11022e-16,6.10255e+06,363
0.00152,1.4822e-322,1,3.21143e-321,2.22045e-16,6.10255e+06,363
0.00154,0,1,3.34977e-321,9.99201e-16,6.10255e+06,363
0.00156,0,1,3.22625e-321,7.77156e-16,6.10255e+06,363
0.00158,0,1,3.25095e-321,0,6.10255e+06,363
0.0016,1.17094e-321,1,4.04146e-321,1.11022e-16,6.10255e+06,363
0.00162,1.37004e-320,1,3.94264e-321,6.66134e-16,6.10255e+06,363
0.00164,4.35425e-319,1,6.14618e-321,4.44089e-16,6.10255e+06,363
0.00166,1.51991e-317,1,7.71088e-320,8.88178e-16,6.10255e+06,363
0.00168,5.30832e-316,1,2.61443e-318,6.66134e-16,6.10255e+06,363
0.0017,1.84455e-314,1,9.31845e-317,3.33067e-16,6.10255e+06,363
0.00172,6.37572e-313,1,3.30954e-315,0,6.10255e+06,363
0.00174,2.19211e-311,1,1.16924e-313,0,6.10255e+06,363
0.00176,7.49698e-310,1,4.10888e-312,5.55112e-16,6.10255e+06,363
0.00178,2.55031e-308,1,1.43621e-310,7.77156e-16,6.10255e+06,363
0.0018,8.62932e-307,1,4.99329e-309,6.66134e-16,6.10255e+06,363
0.00182,2.90423e-305,1,1.7267e-307,2.22045e-16,6.10255e+06,363
0.00184,9.72189e-304,1,5.93892e-306,0,6.10255e+06,363
0.00186,3.2369e-302,1,2.03165e-304,1.11022e-16,6.10255e+06,363
0.00188,1.07191e-300,1,6.91253e-303,2.22045e-16,6.10255e+06,363
0.0019,3.53049e-299,1,2.33918e-301,6.66134e-16,6.10255e+06,363
0.00192,1.15651e-297,1,7.87267e-300,1.11022e-15,6.10255e+06,363
0.00194,3.76789e-296,1,2.63516e-298,1.44329e-15,6.10255e+06,363
0.00196,1.22088e-294,1,8.77229e-297,7.77156e-16,6.10255e+06,363
0.00198,3.93429e-293,1,2.90423e-295,6.66134e-16,6.10255e+06,363
0.002,1.26088e-291,1,9.56217e-294,6.66134e-16,6.10255e+06,363
0.00202,4.01874e-290,1,3.13099e-292,9.99201e-16,6.10255e+06,363
0.00204,1.27381e-288,1,1.01953e-290,8.88178e-16,6.10255e+06,363
0.00206,7.15667e-288,1,5.8057e-290,8.88178e-16,6.10255e+06,363
0.00208,1.25866e-285,1,1.06314e-287,1.44329e-15,6.10255e+06,363
0.0021,3.92361e-284,1,3.40447e-286,1.11022e-15,6.10255e+06,363
0.00212,1.21629e-282,1,1.08411e-284,4.44089e-16,6.10255e+06,363
0.00214,3.74932e-281,1,3.43289e-283,7.77156e-16,6.10255e+06,363
0.00216,1.14929e-279,1,1.08093e-281,5.55112e-16,6.10255e+06,363
0.00218,3.50315e-278,1,3.3844e-280,7.77156e-16,6.10255e+06,363
0.0022,1.06178e-276,1,1.05367e-278,9.99201e-16,6.10255e+06,363
0.00222,3.2e-275,1,3.26182e-277,8.88178e-16,6.10255e+06,363
0.00224,9.58952e-274,1,1.00401e-275,4.44089e-16,6.10255e+06,363
0.00226,2.85739e-272,1,3.07283e-274,7.77156e-16,6.10255e+06,363
0.00228,8.46565e-271,1,9.35076e-273,2.22045e-16,6.10255e+06,363
0.0023,2.49381e-269,1,2.82917e-271,3.33067e-16,6.10255e+06,363
0.00232,7.30413e-268,1,8.51077e-270,8.88178e-16,6.10255e+06,363
0.00234,2.12702e-266,1,2.54547e-268,1.11022e-15,6.10255e+06,363
0.00236,6.15835e-265,1,7.56917e-267,1.11022e-15,6.10255e+06,363
0.00238,1.77272e-263,1,2.23771e-265,1.66533e-15,6.10255e+06,363
0.0024,5.07328e-262,1,6.57699e-264,1.11022e-15,6.10255e+06,363
0.00242,1.44347e-260,1,1.92181e-262,8.88178e-16,6.10255e+06,363
0.00244,4.08305e-259,1,5.58272e-261,9.99201e-16,6.10255e+06,363
0.00246,1.1482e-257,1,1.61223e-259,8.88178e-16,6.10255e+06,363
0.00248,3.20991e-256,1,4.62856e-258,2.22045e-16,6.10255e+06,363
0.0025,8.92087e-255,1,1.32098e-256,2.22045e-16,6.10255e+06,363
0.00252,2.46463e-253,1,3.74771e-255,0,6.10255e+06,363
0.00254,6.76893e-252,1,1.05694e-253,0,6.10255e+06,363
0.00256,1.848e-250,1,2.9631e-252,0,6.10255e+06,363
0.00258,5.01526e-249,1,8.25731e-251,2.22045e-16,6.10255e+06,363
0.0026,1.35295e-247,1,2.2873e-249,2.22045e-16,6.10255e+06,363
0.00262,3.62798e-246,1,6.29784e-248,2.22045e-16,6.10255e+06,363
0.00264,9.67011e-245,1,1.7236e-246,0,6.10255e+06,363
0.00266,2.56197e-243,1,4.68865e-245,1.11022e-16,6.10255e+06,363
0.00268,6.74659e-242,1,1.26771e-243,1.11022e-16,6.10255e+06,363
0.0027,1.76586e-240,1,3.40678e-242,3.33067e-16,6.10255e+06,363
0.00272,4.59387e-239,1,9.0994e-241,0,6.10255e+06,363
0.00274,1.18781e-237,1,2.41555e-239,0,6.10255e+06,363
0.00276,3.05246e-236,1,6.37306e-238,0,6.10255e+06,363
0.00278,7.79616e-235,1,1.67109e-236,0,6.10255e+06,363
0.0028,1.97894e-233,1,4.35473e-235,1.11022e-16,6.10255e+06,363
0.00282,4.99222e-232,1,1.12778e-233,0,6.10255e+06,363
0.00284,1.25158e-230,1,2.90258e-232,3.33067e-16,6.10255e+06,363
0.00286,3.11831e-229,1,7.42386e-231,4.44089e-16,6.10255e+06,363
0.00288,7.72086e-228,1,1.88691e-229,3.33067e-16,6.10255e+06,363
0.0029,1.89972e-226,1,4.76589e-228,0,6.10255e+06,363
0.00292,4.64497e-225,1,1.19618e-226,1.11022e-16,6.10255e+06,363
0.00294,1.12859e-223,1,2.98331e-225,1.11022e-16,6.10255e+06,363
0.00296,2.72485e-222,1,7.3934e-224,3.33067e-16,6.10255e+06,363
0.00298,6.53719e-221,1,1.82064e-222,7.77156e-16,6.10255e+06,363
0.003,1.55838e-219,1,4.45481e-221,7.77156e-16,6.10255e+06,363
0.00302,3.69133e-218,1,1.08306e-219,7.77156e-16,6.10255e+06,363
0.00304,8.68776e-217,1,2.61625e-218,1.11022e-15,6.10255e+06,363
0.00306,2.03161e-215,1,6.27924e-217,3.33067e-16,6.10255e+06,363
0.00308,4.72033e-214,1,1.49735e-215,6.66134e-16,6.10255e+06,363
0.0031,1.08966e-212,1,3.54748e-214,7.77156e-16,6.10255e+06,363
0.00312,2.49916e-211,1,8.35002e-213,4.44089e-16,6.10255e+06,363
0.00314,5.69465e-210,1,1.95262e-211,3.33067e-16,6.10255e+06,363
0.00316,1.28914e-208,1,4.53626e-210,5.55112e-16,6.10255e+06,363
0.00318,2.89927e-207,1,1.04694e-208,4.44089e-16,6.10255e+06,363
0.0032,6.47768e-206,1,2.40038e-207,1.11022e-16,6.10255e+06,363
0.00322,1.43775e-204,1,5.46717e-206,2.22045e-16,6.10255e+06,363
0.00324,3.1701e-203,1,1.23697e-204,5.55112e-16,6.10255e+06,363
0.00326,6.94345e-202,1,2.78009e-203,6.66134e-16,6.10255e+06,363
0.00328,1.51072e-200,1,6.20663e-202,6.66134e-16,6.10255e+06,363
0.0033,3.26503e-199,1,1.37637e-200,3.33067e-16,6.10255e+06,363
0.00332,7.00933e-198,1,3.03175e-199,4.44089e-16,6.10255e+06,363
0.00334,1.49466e-196,1,6.63308e-198,9.99201e-16,6.10255e+06,363
0.00336,3.16572e-195,1,1.44143e-196,8.88178e-16,6.10255e+06,363
0.00338,6.65975e-194,1,3.11111e-195,4.44089e-16,6.10255e+06,363
0.0034,1.39152e-192,1,6.66919e-194,1.33227e-15,6.10255e+06,363
0.00342,2.88774e-191,1,1.41989e-192,1.22125e-15,6.10255e+06,363
0.00344,5.95183e-190,1,3.0023e-191,7.77156e-16,6.10255e+06,363
0.00346,1.21831e-188,1,6.30458e-190,4.44089e-16,6.10255e+06,363
0.00348,2.47669e-187,1,1.31478e-188,9.99201e-16,6.10255e+06,363
0.0035,5.00011e-186,1,2.7229e-187,1.33227e-15,6.10255e+06,363
0.00352,1.00247e-184,1,5.59996e-186,8.88178e-16,6.10255e+06,363
0.00354,1.99588e-183,1,1.14367e-184,8.88178e-16,6.10255e+06,363
0.00356,3.94605e-182,1,2.31935e-183,7.77156e-16,6.10255e+06,363
0.00358,7.74714e-181,1,4.67061e-182,3.33067e-16,6.10255e+06,363
0.0036,1.5103e-179,1,9.33923e-181,6.66134e-16,6.10255e+06,363
0.00362,2.92356e-178,1,1.85425e-179,3.33067e-16,6.10255e+06,363
0.00364,5.61931e-177,1,3.65538e-178,6.66134e-16,6.10255e+06,363
0.00366,1.07241e-175,1,7.15473e-177,5.55112e-16,6.10255e+06,363
0.00368,2.03207e-174,1,1.3904e-175,4.44089e-16,6.10255e+06,363
0.0037,3.82296e-173,1,2.68264e-174,4.44089e-16,6.10255e+06,363
0.00372,7.14065e-172,1,5.13863e-173,6.66134e-16,6.10255e+06,363
0.00374,1.32415e-170,1,9.77201e-172,5.55112e-16,6.10255e+06,363
0.00376,2.43776e-169,1,1.84485e-170,5.55112e-16,6.10255e+06,363
0.00378,4.45539e-168,1,3.45753e-169,4.44089e-16,6.10255e+06,363
0.0038,8.08368e-167,1,6.43264e-168,9.99201e-16,6.10255e+06,363
0.00382,1.45596e-165,1,1.188e-166,8.88178e-16,6.10255e+06,363
0.00384,2.60313e-164,1,2.17791e-165,6.66134e-16,6.10255e+06,363
0.00386,4.61995e-163,1,3.96317e-164,7.77156e-16,6.10255e+06,363
0.00388,8.1388e-162,1,7.1584e-163,7.77156e-16,6.10255e+06,363
0.0039,1.42316e-160,1,1.28335e-161,6.66134e-16,6.10255e+06,363
0.00392,2.47004e-159,1,2.28361e-160,8.88178e-16,6.10255e+06,363
0.00394,4.25503e-158,1,4.03303e-159,6.66134e-16,6.10255e+06,363
0.00396,7.27501e-157,1,7.06907e-158,7.77156e-16,6.10255e+06,363
0.00398,1.23449e-155,1,1.22971e-156,4.44089e-16,6.10255e+06,363
0.004,2.07897e-154,1,2.12293e-155,2.22045e-16,6.10255e+06,363
0.00402,3.47461e-153,1,3.63709e-154,1.33227e-15,6.10255e+06,363
0.00404,5.76301e-152,1,6.18362e-153,1.11022e-15,6.10255e+06,363
0.00406,9.48556e-151,1,1.04325e-151,0,6.10255e+06,363
0.00408,1.5493e-149,1,1.74655e-150,8.88178e-16,6.10255e+06,363
0.0041,2.51104e-148,1,2.90139e-149,8.88178e-16,6.10255e+06,363
0.00412,1.00798e-147,1,1.1791e-148,1.44329e-15,6.10255e+06,363
0.00414,6.4443e-146,1,7.82165e-147,7.77156e-16,6.10255e+06,363
0.00416,1.02036e-144,1,1.26923e-145,0,6.10255e+06,363
0.00418,1.60297e-143,1,2.04344e-144,8.88178e-16,6.10255e+06,363
0.0042,2.49848e-142,1,3.26399e-143,5.55112e-16,6.10255e+06,363
0.00422,3.86361e-141,1,5.17236e-142,2.22045e-16,6.10255e+06,363
0.00424,5.9274e-140,1,8.13143e-141,5.55112e-16,6.10255e+06,363
0.00426,9.02142e-139,1,1.26815e-139,5.55112e-16,6.10255e+06,363
0.00428,1.36211e-137,1,1.96194e-138,1.11022e-16,6.10255e+06,363
0.0043,2.04014e-136,1,3.01091e-137,0,6.10255e+06,363
0.00432,3.03115e-135,1,4.58346e-136,2.22045e-16,6.10255e+06,363
0.00434,4.46723e-134,1,6.92083e-135,1.11022e-16,6.10255e+06,363
0.00436,6.5304e-133,1,1.03652e-133,2.22045e-16,6.10255e+06,363
0.00438,9.46884e-132,1,1.53971e-132,4.44089e-16,6.10255e+06,363
0.0044,1.36174e-130,1,2.26843e-131,6.66134e-16,6.10255e+06,363
0.00442,1.94232e-129,1,3.31455e-130,7.77156e-16,6.10255e+06,363
0.00444,2.74764e-128,1,4.80308e-129,7.77156e-16,6.10255e+06,363
0.00446,1.03022e-127,1,1.82269e-128,7.77156e-16,6.10255e+06,363
0.00448,5.36312e-126,1,9.83657e-127,1.11022e-16,6.10255e+06,363
0.0045,7.39957e-125,1,1.39009e-125,5.55112e-16,6.10255e+06,363
0.00452,1.01239e-123,1,1.94795e-124,1.44329e-15,6.10255e+06,363
0.00454,1.3735e-122,1,2.70668e-123,1.33227e-15,6.10255e+06,363
0.00456,1.84771e-121,1,3.72908e-122,9.99201e-16,6.10255e+06,363
0.00458,2.46461e-120,1,5.094e-121,9.99201e-16,6.10255e+06,363
0.0046,3.25952e-119,1,6.89909e-120,1.22125e-15,6.10255e+06,363
0.00462,4.27402e-118,1,9.26373e-119,8.88178e-16,6.10255e+06,363
0.00464,5.55624e-117,1,1.23317e-117,5.55112e-16,6.10255e+06,363
0.00466,7.16096e-116,1,1.62739e-116,1.11022e-15,6.10255e+06,363
0.00468,9.14938e-115,1,2.12898e-115,9.99201e-16,6.10255e+06,363
0.0047,1.15885e-113,1,2.76089e-114,7.77156e-16,6.10255e+06,363
0.00472,1.45498e-112,1,3.54901e-113,1.11022e-16,6.10255e+06,363
0.00474,1.81081e-111,1,4.52197e-112,8.88178e-16,6.10255e+06,363
0.00476,2.23383e-110,1,5.7108e-111,3.33067e-16,6.10255e+06,363
0.00478,2.73135e-109,1,7.14819e-110,2.22045e-16,6.10255e+06,363
0.0048,3.31006e-108,1,8.86765e-109,3.33067e-16,6.10255e+06,363
0.00482,3.97566e-107,1,1.09023e-107,8.88178e-16,6.10255e+06,363
0.00484,4.73238e-106,1,1.32833e-106,1.44329e-15,6.10255e+06,363
0.00486,5.58252e-105,1,1.60382e-105,1.55431e-15,6.10255e+06,363
0.00488,6.52594e-104,1,1.91889e-104,1.66533e-15,6.10255e+06,363
0.0049,7.55962e-103,1,2.27494e-103,1.55431e-15,6.10255e+06,363
0.00492,8.67729e-102,1,2.67237e-102,1.55431e-15,6.10255e+06,363
0.00494,9.86907e-101,1,3.11038e-101,7.77156e-16,6.10255e+06,363
0.00496,1.11214e-99,1,3.58674e-100,7.77156e-16,6.10255e+06,363
0.00498,1.24169e-98,1,4.09769e-99,0,6.10255e+06,363
0.005,1.37346e-97,1,4.63779e-98,5.55112e-16,6.10255e+06,363
0.00502,1.50507e-96,1,5.19991e-97,0,6.10255e+06,363
0.00504,1.63383e-95,1,5.7753e-96,2.22045e-16,6.10255e+06,363
0.00506,1.75693e-94,1,6.3537e-95,6.66134e-16,6.10255e+06,363
0.00508,1.87143e-93,1,6.92361e-94,4.44089e-16,6.10255e+06,363
0.0051,1.97445e-92,1,7.47258e-93,1.11022e-16,6.10255e+06,363
0.00512,6.3903e-92,1,2.44608e-92,0,6.10255e+06,363
0.00514,2.13535e-90,1,8.45595e-91,7.77156e-16,6.10255e+06,363
0.00516,2.18865e-89,1,8.86488e-90,3.33067e-16,6.10255e+06,363
0.00518,2.22154e-88,1,9.20304e-89,4.44089e-16,6.10255e+06,363
0.0052,2.23296e-87,1,9.46053e-88,0,6.10255e+06,363
0.00522,2.22244e-86,1,9.6295e-87,1.11022e-16,6.10255e+06,363
0.00524,2.19021e-85,1,9.70449e-86,4.44089e-16,6.10255e+06,363
0.00526,2.13708e-84,1,9.68278e-85,5.55112e-16,6.10255e+06,363
0.00528,2.06449e-83,1,9.5645e-84,6.66134e-16,6.10255e+06,363
0.0053,1.97443e-82,1,9.3527e-83,6.66134e-16,6.10255e+06,363
0.00532,1.86932e-81,1,9.05316e-82,0,6.10255e+06,363
0.00534,1.75191e-80,1,8.67418e-81,1.11022e-16,6.10255e+06,363
0.00536,1.6252e-79,1,8.22617e-80,2.22045e-16,6.10255e+06,363
0.00538,1.49226e-78,1,7.72118e-79,1.11022e-16,6.10255e+06,363
0.0054,1.35612e-77,1,7.17237e-78,4.44089e-16,6.10255e+06,363
0.00542,1.21967e-76,1,6.5934e-77,0,6.10255e+06,363
0.00544,1.08558e-75,1,5.99792e-76,5.55112e-16,6.10255e+06,363
0.00546,9.56139e-75,1,5.39896e-75,7.77156e-16,6.10255e+06,363
0.00548,8.33302e-74,1,4.80856e-74,1.11022e-16,6.10255e+06,363
0.0055,7.18588e-73,1,4.23729e-73,0,6.10255e+06,363
0.00552,6.13096e-72,1,3.69409e-72,7.77156e-16,6.10255e+06,363
0.00554,5.17516e-71,1,3.18599e-71,1.11022e-15,6.10255e+06,363
0.00556,4.32156e-70,1,2.71817e-70,1.55431e-15,6.10255e+06,363
0.00558,3.56988e-69,1,2.29392e-69,1.33227e-15,6.10255e+06,363
0.0056,2.91702e-68,1,1.9148e-68,7.77156e-16,6.10255e+06,363
0.00562,2.3576e-67,1,1.58083e-67,1.22125e-15,6.10255e+06,363
0.00564,1.88462e-66,1,1.29075e-66,8.88178e-16,6.10255e+06,363
0.00566,1.48995e-65,1,1.04223e-65,1.9984e-15,6.10255e+06,363
0.00568,1.16491e-64,1,8.32203e-65,1.66533e-15,6.10255e+06,363
0.0057,9.00649e-64,1,6.57066e-64,1.88738e-15,6.10255e+06,363
0.00572,6.88554e-63,1,5.12953e-63,1.33227e-15,6.10255e+06,363
0.00574,5.20492e-62,1,3.95922e-62,1.11022e-15,6.10255e+06,363
0.00576,3.89006e-61,1,3.02118e-61,1.66533e-15,6.10255e+06,363
0.00578,2.87434e-60,1,2.27905e-60,9.99201e-16,6.10255e+06,363
0.0058,2.09959e-59,1,1.69948e-59,1.22125e-15,6.10255e+06,363
0.00582,1.51606e-58,1,1.25265e-58,4.44089e-16,6.10255e+06,363
0.00584,1.08207e-57,1,9.12587e-58,9.99201e-16,6.10255e+06,363
0.00586,7.63359e-57,1,6.57079e-57,5.55112e-16,6.10255e+06,363
0.00588,5.32236e-56,1,4.67554e-56,2.22045e-16,6.10255e+06,363
0.0059,3.66737e-55,1,3.28768e-55,1.11022e-15,6.10255e+06,363
0.00592,2.49718e-54,1,2.28433e-54,4.44089e-16,6.10255e+06,363
0.00594,1.6802e-53,1,1.56824e-53,9.99201e-16,6.10255e+06,363
0.00596,1.11702e-52,1,1.0637e-52,1.11022e-16,6.10255e+06,363
0.00598,7.33694e-52,1,7.1277e-52,2.22045e-16,6.10255e+06,363
0.006,4.76095e-51,1,4.71813e-51,1.88738e-15,6.10255e+06,363
0.00602,3.05186e-50,1,3.08495e-50,3.33067e-16,6.10255e+06,363
0.00604,1.9324e-49,1,1.99229e-49,3.33067e-16,6.10255e+06,363
0.00606,1.20853e-48,1,1.27072e-48,0,6.10255e+06,363
0.00608,7.46466e-48,1,8.00395e-48,0,6.10255e+06,363
0.0061,4.55327e-47,1,4.97833e-47,0,6.10255e+06,363
0.00612,2.7426e-46,1,3.05739e-46,0,6.10255e+06,363
0.00614,1.63113e-45,1,1.85383e-45,0,6.10255e+06,363
0.00616,9.57793e-45,1,1.1097e-44,0,6.10255e+06,363
0.00618,5.55228e-44,1,6.55727e-44,0,6.10255e+06,363
0.0062,3.17726e-43,1,3.82456e-43,0,6.10255e+06,363
0.00622,1.79464e-42,1,2.20164e-42,0,6.10255e+06,363
0.00624,1.00049e-41,1,1.25077e-41,0,6.10255e+06,363
0.00626,5.50446e-41,1,7.01194e-41,0,6.10255e+06,363
0.00628,2.98849e-40,1,3.87874e-40,0,6.10255e+06,363
0.0063,1.60097e-39,1,2.11689e-39,0,6.10255e+06,363
0.00632,8.46199e-39,1,1.13978e-38,0,6.10255e+06,363
0.00634,4.41247e-38,1,6.05369e-38,0,6.10255e+06,363
0.00636,2.26973e-37,1,3.17145e-37,0,6.10255e+06,363
0.00638,1.15162e-36,1,1.63869e-36,0,6.10255e+06,363
0.0064,5.76302e-36,1,8.35019e-36,0,6.10255e+06,363
0.00642,2.84418e-35,1,4.19582e-35,0,6.10255e+06,363
0.00644,1.38417e-34,1,2.07883e-34,1.11022e-16,6.10255e+06,363
0.00646,6.64219e-34,1,1.01546e-33,6.66134e-16,6.10255e+06,363
0.00648,3.14252e-33,1,4.88996e-33,5.55112e-16,6.10255e+06,363
0.0065,1.46572e-32,1,2.32116e-32,0,6.10255e+06,363
0.00652,6.73883e-32,1,1.08598e-31,0,6.10255e+06,363
0.00654,3.05379e-31,1,5.00733e-31,0,6.10255e+06,363
0.00656,1.36386e-30,1,2.2752e-30,0,6.10255e+06,363
0.00658,6.00244e-30,1,1.01862e-29,0,6.10255e+06,363
0.0066,2.60298e-29,1,4.493e-29,5.55112e-16,6.10255e+06,363
0.00662,1.11211e-28,1,1.95229e-28,6.66134e-16,6.10255e+06,363
0.00664,4.68067e-28,1,8.35572e-28,0,6.10255e+06,363
0.00666,1.94044e-27,1,3.52209e-27,0,6.10255e+06,363
0.00668,7.92262e-27,1,1.46198e-26,0,6.10255e+06,363
0.0067,3.18535e-26,1,5.97508e-26,1.11022e-16,6.10255e+06,363
0.00672,1.26097e-25,1,2.40409e-25,5.55112e-16,6.10255e+06,363
0.00674,4.91424e-25,1,9.52146e-25,0,6.10255e+06,363
0.00676,1.88517e-24,1,3.71141e-24,0,6.10255e+06,363
0.00678,7.11755e-24,1,1.42364e-23,0,6.10255e+06,363
0.0068,2.64449e-23,1,5.37317e-23,0,6.10255e+06,363
0.00682,9.66784e-23,1,1.99515e-22,0,6.10255e+06,363
0.00684,3.4773e-22,1,7.28759e-22,6.66134e-16,6.10255e+06,363
0.00686,1.23035e-21,1,2.61819e-21,1.77636e-15,6.10255e+06,363
0.00688,4.28195e-21,1,9.25075e-21,1.55431e-15,6.10255e+06,363
0.0069,1.46568e-20,1,3.2142e-20,6.66134e-16,6.10255e+06,363
0.00692,4.93409e-20,1,1.09818e-19,0,6.10255e+06,363
0.00694,1.63373e-19,1,3.68989e-19,0,6.10255e+06,363
0.00696,5.3212e-19,1,1.2194e-18,0,6.10255e+06,363
0.00698,1.70456e-18,1,3.96274e-18,0,6.10255e+06,363
0.007,5.36951e-18,1,1.26621e-17,8.88178e-16,6.10255e+06,363
0.00702,1.66022e-17,1,3.97044e-17,0,6.10255e+06,363
0.00704,5.05683e-17,1,1.22627e-16,7.77156e-16,6.10255e+06,363
0.00706,1.52379e-16,1,3.74717e-16,1.33227e-15,6.10255e+06,363
0.00708,4.78315e-16,1,1.1944e-15,8.88178e-15,6.10255e+06,363
0.0071,1.5894e-15,1,4.03861e-15,3.68594e-14,6.10255e+06,363
0.00712,5.58795e-15,1,1.44799e-14,1.32339e-13,6.10255e+06,363
0.00714,1.99514e-14,1,5.27754e-14,4.71068e-13,6.10255e+06,363
0.00716,7.02495e-14,1,1.89697e-13,1.62226e-12,6.10255e+06,363.001
0.00718,2.41294e-13,1,6.6492e-13,5.43277e-12,6.10255e+06,363.001
0.0072,8.05599e-13,1,2.26432e-12,1.7685e-11,6.10255e+06,363.002
0.00722,2.61273e-12,1,7.48669e-12,5.59581e-11,6.10255e+06,363.004
0.00724,8.23044e-12,1,2.40312e-11,1.72081e-10,6.10255e+06,363.008
0.00726,2.5181e-11,1,7.48794e-11,5.14283e-10,6.10255e+06,363.014
0.00728,7.48211e-11,1,2.2648e-10,1.49366e-09,6.10255e+06,363.024
0.0073,2.15901e-10,1,6.64901e-10,4.21567e-09,6.10255e+06,363.041
0.00732,6.0498e-10,1,1.89462e-09,1.15618e-08,6.10255e+06,363.069
0.00734,1.64611e-09,1,5.23965e-09,3.0811e-08,6.10255e+06,363.115
0.00736,4.34889e-09,1,1.40627e-08,7.97775e-08,6.10255e+06,363.19
0.00738,1.11547e-08,1,3.66258e-08,2.00686e-07,6.10255e+06,363.308
0.0074,2.77743e-08,0.999999,9.25566e-08,4.90419e-07,6.10255e+06,363.492
0.00742,6.71217e-08,0.999999,2.26917e-07,1.16405e-06,6.10255e+06,363.775
0.00744,1.57404e-07,0.999997,5.39605e-07,2.68315e-06,6.10255e+06,364.204
0.00746,3.58069e-07,0.999992,1.24428e-06,6.00448e-06,6.10255e+06,364.841
0.00748,7.89837e-07,0.999983,2.78124e-06,1.30411e-05,6.10255e+06,365.771
0.0075,1.6885e-06,0.999965,6.02334e-06,2.74772e-05,6.10255e+06,367.107
0.00752,3.496e-06,0.999928,1.26319e-05,5.61326e-05,6.10255e+06,368.985
0.00754,7.00516e-06,0.999856,2.56354e-05,0.000111113,6.10255e+06,371.575
0.00756,1.35729e-05,0.999723,5.0308e-05,0.00021297,6.10255e+06,375.066
0.00758,2.54074e-05,0.999484,9.53977e-05,0.000394974,6.10255e+06,379.663
0.0076,4.59143e-05,0.999071,0.000174688,0.000708351,6.10255e+06,385.565
0.00762,8.00581e-05,0.998383,0.000308762,0.00122794,6.10255e+06,392.952
0.00764,0.000134666,0.997281,0.000526724,0.00205739,6.10255e+06,401.957
0.00766,0.000218601,0.995581,0.000867556,0.00333283,6.10255e+06,412.657
0.00768,0.000342744,0.993052,0.00138086,0.00522431,6.10255e+06,425.065
0.0077,0.000519804,0.989419,0.00212686,0.00793475,6.10255e+06,439.136
0.00772,0.000764004,0.984363,0.00317586,0.0116971,6.10255e+06,454.784
0.00774,0.00109075,0.977531,0.00460735,0.0167708,6.10255e+06,471.899
0.00776,0.0015164,0.968536,0.00650915,0.023438,6.10255e+06,490.361
0.00778,0.00205806,0.956963,0.00897684,0.0320016,6.10255e+06,510.054
0.0078,0.00273364,0.94237,0.0121133,0.0427828,6.10255e+06,530.866
0.00782,0.00356181,0.924291,0.0160283,0.0561192,6.10255e+06,552.689
0.00784,0.00456191,0.90224,0.0208374,0.0723608,6.10255e+06,575.407
0.00786,0.0051326,0.889571,0.0236145,0.0816821,6.10255e+06,587.061
0.00788,0.00715645,0.844263,0.033613,0.114967,6.10255e+06,622.949
0.0079,0.00794261,0.826539,0.0375483,0.12797,6.10255e+06,635.132
0.00792,0.0106616,0.764869,0.051324,0.173146,6.10255e+06,671.853
0.00794,0.0127842,0.716443,0.0622141,0.208559,6.10255e+06,696.025
0.00796,0.0151509,0.662257,0.0744585,0.248134,6.10255e+06,719.451
0.00798,0.0177412,0.602794,0.0879508,0.291514,6.10255e+06,741.66
0.008,0.0205146,0.539008,0.102471,0.338006,6.10255e+06,762.196
0.00802,0.0234085,0.472366,0.117674,0.386551,6.10255e+06,780.688
0.00804,0.0263399,0.40481,0.1331,0.43575,6.10255e+06,796.912
0.00806,0.0292122,0.338598,0.14821,0.483979,6.10255e+06,810.836
0.00808,0.031927,0.276037,0.162456,0.52958,6.10255e+06,822.611
0.0081,0.034398,0.219154,0.175357,0.571091,6.10255e+06,832.531
0.00812,0.0365633,0.169415,0.186574,0.607448,6.10255e+06,840.953
0.00814,0.0383921,0.127562,0.19594,0.638106,6.10255e+06,848.224
0.00816,0.0398841,0.0936197,0.203464,0.663033,6.10255e+06,854.625
0.00818,0.0410633,0.0670308,0.209288,0.682618,6.10255e+06,860.358
0.0082,0.0415475,0.0562118,0.211633,0.690608,6.10255e+06,863.014
0.00822,0.0426477,0.0320221,0.216789,0.708542,6.10255e+06,870.25
0.00824,0.0429165,0.0262491,0.217991,0.712843,6.10255e+06,872.434
0.00826,0.043504,0.013994,0.220476,0.722026,6.10255e+06,878.331
0.00828,0.0437589,0.00895902,0.221446,0.725837,6.10255e+06,881.733
0.0083,0.0439382,0.00561687,0.222052,0.728392,6.10255e+06,884.727
0.00832,0.044064,0.00344941,0.222413,0.730073,6.10255e+06,887.334
0.00834,0.0441522,0.00207551,0.222614,0.731158,6.10255e+06,889.58
0.00836,0.0442145,0.00122416,0.222713,0.731848,6.10255e+06,891.493
0.00838,0.0442584,0.000718623,0.222751,0.732272,6.10255e+06,893.093
0.0084,0.0442899,0.000425709,0.222754,0.73253,6.10255e+06,894.411
0.00842,0.0443146,0.000235696,0.222744,0.732705,6.10255e+06,895.538
0.00844,0.0443332,0.000127685,0.222726,0.732813,6.10255e+06,896.466
0.00846,0.0443475,6.77615e-05,0.222705,0.73288,6.10255e+06,897.221
0.00848,0.0443586,3.5212e-05,0.222685,0.732922,6.10255e+06,897.83
0.0085,0.0443674,1.79153e-05,0.222667,0.732948,6.10255e+06,898.318
0.00852,0.0443743,8.92396e-06,0.222652,0.732965,6.10255e+06,898.706
0.00854,0.0443773,6.24838e-06,0.222645,0.732971,6.10255e+06,898.868
0.00856,0.0443843,2.07748e-06,0.22263,0.732984,6.10255e+06,899.25
0.00858,0.0443861,1.42396e-06,0.222626,0.732987,6.10255e+06,899.349
0.0086,0.0443905,4.4409e-07,0.222616,0.732993,6.10255e+06,899.578
0.00862,0.0443927,1.98844e-07,0.222612,0.732995,6.10255e+06,899.687
0.00864,0.0443944,8.71479e-08,0.222609,0.732997,6.10255e+06,899.769
0.00866,0.0443958,3.73849e-08,0.222606,0.732998,6.10255e+06,899.831
0.00868,0.0443968,1.56974e-08,0.222605,0.732999,6.10255e+06,899.877
0.0087,0.0443976,6.45127e-09,0.222603,0.732999,6.10255e+06,899.912
0.00872,0.0443982,2.59507e-09,0.222602,0.733,6.10255e+06,899.937
0.00874,0.0443987,1.02173e-09,0.222602,0.733,6.10255e+06,899.955
0.00876,0.044399,3.93734e-10,0.222601,0.733,6.10255e+06,899.968
0.00878,0.0443993,1.48504e-10,0.222601,0.733,6.10255e+06,899.978
0.0088,0.0443995,5.48156e-11,0.222601,0.733,6.10255e+06,899.985
0.00882,0.0443996,1.97976e-11,0.2226,0.733,6.10255e+06,899.989
0.00884,0.0443997,7.2433e-12,0.2226,0.733,6.10255e+06,899.993
0.00886,0.0443998,2.86873e-12,0.2226,0.733,6.10255e+06,899.995
0.00888,0.0443998,1.68067e-12,0.2226,0.733,6.10255e+06,899.996
0.0089,0.0443999,3.24749e-13,0.2226,0.733,6.10255e+06,899.998
0.00892,0.0443999,1.85637e-13,0.2226,0.733,6.10255e+06,899.998
0.00894,0.0444,3.36856e-14,0.2226,0.733,6.10255e+06,899.999
0.00896,0.0444,1.06006e-14,0.2226,0.733,6.10255e+06,899.999
0.00898,0.0444,3.33841e-15,0.2226,0.733,6.10255e+06,900
0.009,0.0444,1.08216e-15,0.2226,0.733,6.10255e+06,900
0.00902,0.0444,3.68881e-16,0.2226,0.733,6.10255e+06,900
0.00904,0.0444,1.30629e-16,0.2226,0.733,6.10255e+06,900
0.00906,0.0444,4.68959e-17,0.2226,0.733,6.10255e+06,900
0.00908,0.0444,1.6806e-17,0.2226,0.733,6.10255e+06,900
0.0091,0.0444,5.97026e-18,0.2226,0.733,6.10255e+06,900
0.00912,0.0444,2.09662e-18,0.2226,0.733,6.10255e+06,900
0.00914,0.0444,7.27108e-19,0.2226,0.733,6.10255e+06,900
0.00916,0.0444,2.48935e-19,0.2226,0.733,6.10255e+06,900
0.00918,0.0444,8.41301e-20,0.2226,0.733,6.10255e+06,900
0.0092,0.0444,2.80675e-20,0.2226,0.733,6.10255e+06,900
0.00922,0.0444,1.61337e-20,0.2226,0.733,6.10255e+06,900
0.00924,0.0444,3.00594e-21,0.2226,0.733,6.10255e+06,900
0.00926,0.0444,9.6509e-22,0.2226,0.733,6.10255e+06,900
0.00928,0.0444,3.05961e-22,0.2226,0.733,6.10255e+06,900
0.0093,0.0444,9.57874e-23,0.2226,0.733,6.10255e+06,900
0.00932,0.0444,2.9616e-23,0.2226,0.733,6.10255e+06,900
0.00934,0.0444,9.04386e-24,0.2226,0.733,6.10255e+06,900
0.00936,0.0444,2.72786e-24,0.2226,0.733,6.10255e+06,900
0.00938,0.0444,8.1276e-25,0.2226,0.733,6.10255e+06,900
0.0094,0.0444,2.39225e-25,0.2226,0.733,6.10255e+06,900
0.00942,0.0444,6.95642e-26,0.2226,0.733,6.10255e+06,900
0.00944,0.0444,1.99862e-26,0.2226,0.733,6.10255e+06,900
0.00946,0.0444,5.67378e-27,0.2226,0.733,6.10255e+06,900
0.00948,0.0444,1.59162e-27,0.2226,0.733,6.10255e+06,900
0.0095,0.0444,4.41228e-28,0.2226,0.733,6.10255e+06,900
0.00952,0.0444,1.20885e-28,0.2226,0.733,6.10255e+06,900
0.00954,0.0444,3.27337e-29,0.2226,0.733,6.10255e+06,900
0.00956,0.0444,1.69593e-29,0.2226,0.733,6.10255e+06,900
0.00958,0.0444,2.31793e-30,0.2226,0.733,6.10255e+06,900
0.0096,0.0444,6.06233e-31,0.2226,0.733,6.10255e+06,900
0.00962,0.0444,1.5675e-31,0.2226,0.733,6.10255e+06,900
0.00964,0.0444,4.00709e-32,0.2226,0.733,6.10255e+06,900
0.00966,0.0444,1.01283e-32,0.2226,0.733,6.10255e+06,900
0.00968,0.0444,2.53135e-33,0.2226,0.733,6.10255e+06,900
0.0097,0.0444,6.25611e-34,0.2226,0.733,6.10255e+06,900
0.00972,0.0444,1.52905e-34,0.2226,0.733,6.10255e+06,900
0.00974,0.0444,3.69596e-35,0.2226,0.733,6.10255e+06,900
0.00976,0.0444,8.83587e-36,0.2226,0.733,6.10255e+06,900
0.00978,0.0444,2.08936e-36,0.2226,0.733,6.10255e+06,900
0.0098,0.0444,4.88701e-37,0.2226,0.733,6.10255e+06,900
0.00982,0.0444,1.13075e-37,0.2226,0.733,6.10255e+06,900
0.00984,0.0444,2.58823e-38,0.2226,0.733,6.10255e+06,900
0.00986,0.0444,5.86101e-39,0.2226,0.733,6.10255e+06,900
0.00988,0.0444,1.31303e-39,0.2226,0.733,6.10255e+06,900
0.0099,0.0444,6.1894e-40,0.2226,0.733,6.10255e+06,900
0.00992,0.0444,6.36763e-41,0.2226,0.733,6.10255e+06,900
0.00994,0.0444,1.36788e-41,0.2226,0.733,6.10255e+06,900
0.00996,0.0444,2.79479e-42,0.2226,0.733,6.10255e+06,900