x,NH3,C7H16,O2,N2,p,T
0,1.67982e-322,1,0,0,6.10255e+06,363
2e-05,0,1,0,0,6.10255e+06,363
4e-05,1.63042e-322,1,1.4822e-322,0,6.10255e+06,363
6e-05,1.58101e-322,1,1.33398e-322,1.11022e-16,6.10255e+06,363
8e-05,3.45846e-323,1,0,1.11022e-16,6.10255e+06,363
0.0001,0,1,1.72923e-322,2.22045e-16,6.10255e+06,363
0.00012,0,1,0,6.66134e-16,6.10255e+06,363
0.00014,0,1,0,6.66134e-16,6.10255e+06,363
0.00016,0,1,1.58101e-322,5.55112e-16,6.10255e+06,363
0.00018,0,1,0,2.22045e-16,6.10255e+06,363
0.0002,1.97626e-323,1,0,1.11022e-16,6.10255e+06,363
0.00022,2.47033e-323,1,0,1.11022e-16,6.10255e+06,363
0.00024,0,1,1.5316e-322,2.22045e-16,6.10255e+06,363
0.00026,1.38338e-322,1,0,3.33067e-16,6.10255e+06,363
0.00028,3.95253e-323,1,1.33398e-322,7.77156e-16,6.10255e+06,363
0.0003,1.28457e-322,1,0,6.66134e-16,6.10255e+06,363
0.00032,1.43279e-322,1,0,5.55112e-16,6.10255e+06,363
0.00034,2.47033e-323,1,0,1.11022e-16,6.10255e+06,363
0.00036,1.33398e-322,1,0,2.22045e-16,6.10255e+06,363
0.00038,1.97626e-323,1,0,3.33067e-16,6.10255e+06,363
0.0004,1.67982e-322,1,0,0,6.10255e+06,363
0.00042,0,1,1.23516e-322,1.11022e-16,6.10255e+06,363
0.00044,0,1,0,3.33067e-16,6.10255e+06,363
0.00046,0,1,1.43279e-322,4.44089e-16,6.10255e+06,363
0.00048,0,1,1.58101e-322,2.22045e-16,6.10255e+06,363
0.0005,0,1,0,3.33067e-16,6.10255e+06,363
0.00052,1.38338e-322,1,0,2.22045e-16,6.10255e+06,363
0.00054,0,1,0,5.55112e-16,6.10255e+06,363
0.00056,1.38338e-322,1,1.38338e-322,8.88178e-16,6.10255e+06,363
0.00058,0,1,0,1.33227e-15,6.10255e+06,363
0.0006,0,1,1.33398e-322,1.11022e-15,6.10255e+06,363
0.00062,0,1,3.70549e-322,1.33227e-15,6.10255e+06,363
0.00064,0,1,6.42285e-322,1.33227e-15,6.10255e+06,363
0.00066,0,1,3.31024e-322,1.22125e-15,6.10255e+06,363
0.00068,1.58101e-322,1,6.62048e-322,1.11022e-15,6.10255e+06,363
0.0007,2.47033e-323,1,3.50787e-322,1.33227e-15,6.10255e+06,363
0.00072,0,1,6.66989e-322,1.11022e-15,6.10255e+06,363
0.00074,0,1,4.5454e-322,1.55431e-15,6.10255e+06,363
0.00076,0,1,6.52167e-322,1.88738e-15,6.10255e+06,363
0.00078,0,1,8.54734e-322,1.88738e-15,6.10255e+06,363
0.0008,0,1,1.16599e-321,1.44329e-15,6.10255e+06,363
0.00082,0,1,1.15117e-321,1.11022e-15,6.10255e+06,363
0.00084,0,1,1.13141e-321,1.44329e-15,6.10255e+06,363
0.00086,0,1,1.35868e-321,2.10942e-15,6.10255e+06,363
0.00088,2.47033e-323,1,1.13141e-321,2.33147e-15,6.10255e+06,363
0.0009,0,1,1.36856e-321,2.22045e-15,6.10255e+06,363
0.00092,0,1,1.99603e-321,1.88738e-15,6.10255e+06,363
0.00094,0,1,2.50491e-321,1.33227e-15,6.10255e+06,363
0.00096,0,1,2.54444e-321,1.11022e-15,6.10255e+06,363
0.00098,0,1,2.49009e-321,1.44329e-15,6.10255e+06,363
0.001,0,1,2.50985e-321,1.33227e-15,6.10255e+06,363
0.00102,0,1,2.55926e-321,1.11022e-15,6.10255e+06,363
0.00104,0,1,2.53456e-321,1.11022e-15,6.10255e+06,363
0.00106,0,1,2.56914e-321,8.88178e-16,6.10255e+06,363
0.00108,9.88131e-324,1,2.65313e-321,6.66134e-16,6.10255e+06,363
0.0011,1.23516e-322,1,2.66301e-321,9.99201e-16,6.10255e+06,363
0.00112,1.28457e-322,1,3.07309e-321,5.55112e-16,6.10255e+06,363
0.00114,0,1,3.16696e-321,8.88178e-16,6.10255e+06,363
0.00116,1.63042e-322,1,3.16696e-321,9.99201e-16,6.10255e+06,363
0.00118,0,1,3.19166e-321,7.77156e-16,6.10255e+06,363
0.0012,0,1,3.23613e-321,7.77156e-16,6.10255e+06,363
0.00122,1.38338e-322,1,3.13732e-321,8.88178e-16,6.10255e+06,363
0.00124,0,1,3.24601e-321,9.99201e-16,6.10255e+06,363
0.00126,0,1,3.17684e-321,8.88178e-16,6.10255e+06,363
0.00128,1.5316e-322,1,3.13732e-321,9.99201e-16,6.10255e+06,363
0.0013,0,1,3.24107e-321,1.11022e-15,6.10255e+06,363
0.00132,0,1,3.11261e-321,1.22125e-15,6.10255e+06,363
0.00134,0,1,3.21143e-321,1.11022e-15,6.10255e+06,363
0.00136,0,1,3.11755e-321,8.88178e-16,6.10255e+06,363
0.00138,0,1,3.23119e-321,7.77156e-16,6.10255e+06,363
0.0014,0,1,3.32506e-321,9.99201e-16,6.10255e+06,363
0.00142,0,1,3.10767e-321,2.22045e-16,6.10255e+06,363
0.00144,0,1,3.1966e-321,1.11022e-16,6.10255e+06,363
0.00146,0,1,3.17684e-321,0,6.10255e+06,363
0.00148,1.4822e-322,1,3.21637e-321,1.11022e-16,6.10255e+06,363
0.0015,1.63042e-322,1,3.19166e-321,1.11022e-16,6.10255e+06,363
0.00152,1.4822e-322,1,3.21143e-321,2.22045e-16,6.10255e+06,363
0.00154,0,1,3.34977e-321,3.33067e-16,6.10255e+06,363
0.00156,0,1,3.22625e-321,2.22045e-16,6.10255e+06,363
0.00158,0,1,3.25095e-321,2.22045e-16,6.10255e+06,363
0.0016,1.17094e-321,1,4.04146e-321,6.66134e-16,6.10255e+06,363
0.00162,1.37202e-320,1,3.94264e-321,3.33067e-16,6.10255e+06,363
0.00164,4.37253e-319,1,6.15606e-321,2.22045e-16,6.10255e+06,363
0.00166,1.53055e-317,1,7.68272e-320,5.55112e-16,6.10255e+06,363
0.00168,5.34703e-316,1,2.61841e-318,5.55112e-16,6.10255e+06,363
0.0017,1.85832e-314,1,9.33797e-317,8.88178e-16,6.10255e+06,363
0.00172,6.42436e-313,1,3.31722e-315,1.33227e-15,6.10255e+06,363
0.00174,2.20921e-311,1,1.17221e-313,8.88178e-16,6.10255e+06,363
0.00176,7.55674e-310,1,4.12022e-312,1.77636e-15,6.10255e+06,363
0.00178,2.57108e-308,1,1.4405e-310,1.77636e-15,6.10255e+06,363
0.0018,8.70112e-307,1,5.00931e-309,1.77636e-15,6.10255e+06,363
0.00182,2.92891e-305,1,1.73264e-307,1.55431e-15,6.10255e+06,363
0.00184,9.80623e-304,1,5.96068e-306,1.44329e-15,6.10255e+06,363
0.00186,3.26556e-302,1,2.03956e-304,8.88178e-16,6.10255e+06,363
0.00188,1.0816e-300,1,6.941e-303,7.77156e-16,6.10255e+06,363
0.0019,3.56302e-299,1,2.34935e-301,1.22125e-15,6.10255e+06,363
0.00192,1.16738e-297,1,7.90873e-300,9.99201e-16,6.10255e+06,363
0.00194,3.80398e-296,1,2.64784e-298,5.55112e-16,6.10255e+06,363
0.00196,1.23279e-294,1,8.81651e-297,8.88178e-16,6.10255e+06,363
0.00198,3.97341e-293,1,2.91954e-295,8.88178e-16,6.10255e+06,363
0.002,1.27365e-291,1,9.61479e-294,7.77156e-16,6.10255e+06,363
0.00202,4.06016e-290,1,3.14894e-292,7.77156e-16,6.10255e+06,363
0.00204,1.28717e-288,1,1.02561e-290,9.99201e-16,6.10255e+06,363
0.00206,7.23237e-288,1,5.84098e-290,1.11022e-15,6.10255e+06,363
0.00208,1.27232e-285,1,1.06996e-287,1.11022e-15,6.10255e+06,363
0.0021,3.96687e-284,1,3.42709e-286,7.77156e-16,6.10255e+06,363
0.00212,1.22991e-282,1,1.09156e-284,7.77156e-16,6.10255e+06,363
0.00214,3.79197e-281,1,3.45723e-283,8.88178e-16,6.10255e+06,363
0.00216,1.16256e-279,1,1.08883e-281,6.66134e-16,6.10255e+06,363
0.00218,3.5442e-278,1,3.40988e-280,1.11022e-15,6.10255e+06,363
0.0022,1.0744e-276,1,1.06183e-278,7.77156e-16,6.10255e+06,363
0.00222,3.23856e-275,1,3.28776e-277,7.77156e-16,6.10255e+06,363
0.00224,9.70665e-274,1,1.01221e-275,1.11022e-16,6.10255e+06,363
0.00226,2.89274e-272,1,3.09854e-274,5.55112e-16,6.10255e+06,363
0.00228,8.57171e-271,1,9.43088e-273,1.11022e-16,6.10255e+06,363
0.0023,2.52543e-269,1,2.85397e-271,4.44089e-16,6.10255e+06,363
0.00232,7.39783e-268,1,8.58701e-270,5.55112e-16,6.10255e+06,363
0.00234,2.15461e-266,1,2.56875e-268,6.66134e-16,6.10255e+06,363
0.00236,6.23908e-265,1,7.63979e-267,7.77156e-16,6.10255e+06,363
0.00238,1.79619e-263,1,2.25899e-265,5.55112e-16,6.10255e+06,363
0.0024,5.14113e-262,1,6.64066e-264,5.55112e-16,6.10255e+06,363
0.00242,1.46295e-260,1,1.94074e-262,7.77156e-16,6.10255e+06,363
0.00244,4.13864e-259,1,5.63861e-261,8.88178e-16,6.10255e+06,363
0.00246,1.16396e-257,1,1.62862e-259,7.77156e-16,6.10255e+06,363
0.00248,3.25431e-256,1,4.6763e-258,6.66134e-16,6.10255e+06,363
0.0025,9.04516e-255,1,1.33479e-256,6.66134e-16,6.10255e+06,363
0.00252,2.4992e-253,1,3.78741e-255,5.55112e-16,6.10255e+06,363
0.00254,6.86446e-252,1,1.06828e-253,2.22045e-16,6.10255e+06,363
0.00256,1.87423e-250,1,2.99522e-252,4.44089e-16,6.10255e+06,363
0.00258,5.0868e-249,1,8.34777e-251,7.77156e-16,6.10255e+06,363
0.0026,1.37234e-247,1,2.3126e-249,6.66134e-16,6.10255e+06,363
0.00262,3.68019e-246,1,6.36811e-248,3.33067e-16,6.10255e+06,363
0.00264,9.80975e-245,1,1.74298e-246,4.44089e-16,6.10255e+06,363
0.00266,2.59907e-243,1,4.74177e-245,1.22125e-15,6.10255e+06,363
0.00268,6.84454e-242,1,1.28217e-243,1.11022e-16,6.10255e+06,363
0.0027,1.79154e-240,1,3.44585e-242,0,6.10255e+06,363
0.00272,4.66078e-239,1,9.20426e-241,2.22045e-16,6.10255e+06,363
0.00274,1.20512e-237,1,2.4435e-239,0,6.10255e+06,363
0.00276,3.09695e-236,1,6.44705e-238,1.11022e-16,6.10255e+06,363
0.00278,7.90976e-235,1,1.69054e-236,2.22045e-16,6.10255e+06,363
0.0028,2.00774e-233,1,4.4055e-235,2.22045e-16,6.10255e+06,363
0.00282,5.06479e-232,1,1.14095e-233,9.99201e-16,6.10255e+06,363
0.00284,1.26973e-230,1,2.93647e-232,1.55431e-15,6.10255e+06,363
0.00286,3.16341e-229,1,7.51048e-231,8.88178e-16,6.10255e+06,363
0.00288,7.83216e-228,1,1.9089e-229,8.88178e-16,6.10255e+06,363
0.0029,1.927e-226,1,4.8213e-228,3.33067e-16,6.10255e+06,363
0.00292,4.71136e-225,1,1.21004e-226,2.22045e-16,6.10255e+06,363
0.00294,1.14464e-223,1,3.01777e-225,0,6.10255e+06,363
0.00296,2.76337e-222,1,7.47841e-224,6.66134e-16,6.10255e+06,363
0.00298,6.62901e-221,1,1.84146e-222,8.88178e-16,6.10255e+06,363
0.003,1.58012e-219,1,4.50546e-221,9.99201e-16,6.10255e+06,363
0.00302,3.74242e-218,1,1.09528e-219,6.66134e-16,6.10255e+06,363
0.00304,8.80702e-217,1,2.64557e-218,9.99201e-16,6.10255e+06,363
0.00306,2.05925e-215,1,6.349e-217,1.33227e-15,6.10255e+06,363
0.00308,4.78394e-214,1,1.51383e-215,1.44329e-15,6.10255e+06,363
0.0031,1.1042e-212,1,3.58614e-214,1.11022e-15,6.10255e+06,363
0.00312,2.53214e-211,1,8.44002e-213,1.33227e-15,6.10255e+06,363
0.00314,5.76893e-210,1,1.97342e-211,1.9984e-15,6.10255e+06,363
0.00316,1.30576e-208,1,4.58399e-210,1.77636e-15,6.10255e+06,363
0.00318,2.93616e-207,1,1.05781e-208,1.77636e-15,6.10255e+06,363
0.0032,6.55899e-206,1,2.42495e-207,7.77156e-16,6.10255e+06,363
0.00322,1.45555e-204,1,5.52228e-206,1.22125e-15,6.10255e+06,363
0.00324,3.20875e-203,1,1.24924e-204,1.22125e-15,6.10255e+06,363
0.00326,7.02683e-202,1,2.80722e-203,6.66134e-16,6.10255e+06,363
0.00328,1.52857e-200,1,6.26613e-202,9.99201e-16,6.10255e+06,363
0.0033,3.30297e-199,1,1.38933e-200,6.66134e-16,6.10255e+06,363
0.00332,7.08936e-198,1,3.05974e-199,6.66134e-16,6.10255e+06,363
0.00334,1.51142e-196,1,6.69308e-198,7.77156e-16,6.10255e+06,363
0.00336,3.20055e-195,1,1.45419e-196,4.44089e-16,6.10255e+06,363
0.00338,6.73162e-194,1,3.13807e-195,7.77156e-16,6.10255e+06,363
0.0034,1.40624e-192,1,6.72567e-194,4.44089e-16,6.10255e+06,363
0.00342,2.91765e-191,1,1.43164e-192,4.44089e-16,6.10255e+06,363
0.00344,6.01217e-190,1,3.02652e-191,5.55112e-16,6.10255e+06,363
0.00346,1.23039e-188,1,6.35416e-190,4.44089e-16,6.10255e+06,363
0.00348,2.50069e-187,1,1.32485e-188,6.66134e-16,6.10255e+06,363
0.0035,5.04744e-186,1,2.74319e-187,4.44089e-16,6.10255e+06,363
0.00352,1.01173e-184,1,5.64051e-186,5.55112e-16,6.10255e+06,363
0.00354,2.01387e-183,1,1.15171e-184,0,6.10255e+06,363
0.00356,3.98071e-182,1,2.33517e-183,1.11022e-16,6.10255e+06,363
0.00358,7.81344e-181,1,4.70149e-182,6.66134e-16,6.10255e+06,363
0.0036,1.52288e-179,1,9.39902e-181,1.11022e-15,6.10255e+06,363
0.00362,2.94726e-178,1,1.86573e-179,1.22125e-15,6.10255e+06,363
0.00364,5.66359e-177,1,3.67724e-178,7.77156e-16,6.10255e+06,363
0.00366,1.08062e-175,1,7.19605e-177,8.88178e-16,6.10255e+06,363
0.00368,2.04717e-174,1,1.39814e-175,1.33227e-15,6.10255e+06,363
0.0037,3.85054e-173,1,2.69703e-174,1.22125e-15,6.10255e+06,363
0.00372,7.19058e-172,1,5.16515e-173,3.33067e-16,6.10255e+06,363
0.00374,1.33313e-170,1,9.82047e-172,0,6.10255e+06,363
0.00376,2.45376e-169,1,1.85363e-170,5.55112e-16,6.10255e+06,363
0.00378,4.48368e-168,1,3.47332e-169,6.66134e-16,6.10255e+06,363
0.0038,8.13333e-167,1,6.46077e-168,9.99201e-16,6.10255e+06,363
0.00382,1.4646e-165,1,1.19297e-166,6.66134e-16,6.10255e+06,363
0.00384,2.61806e-164,1,2.18661e-165,8.88178e-16,6.10255e+06,363
0.00386,4.64552e-163,1,3.97828e-164,9.99201e-16,6.10255e+06,363
0.00388,8.18225e-162,1,7.1844e-163,6.66134e-16,6.10255e+06,363
0.0039,1.43048e-160,1,1.28779e-161,4.44089e-16,6.10255e+06,363
0.00392,2.48229e-159,1,2.29111e-160,2.22045e-16,6.10255e+06,363
0.00394,4.27534e-158,1,4.04559e-159,4.44089e-16,6.10255e+06,363
0.00396,7.30842e-157,1,7.08991e-158,6.66134e-16,6.10255e+06,363
0.00398,1.23994e-155,1,1.23313e-156,2.22045e-16,6.10255e+06,363
0.004,2.08779e-154,1,2.12851e-155,2.22045e-16,6.10255e+06,363
0.00402,3.48877e-153,1,3.6461e-154,2.22045e-16,6.10255e+06,363
0.00404,5.78553e-152,1,6.19801e-153,2.22045e-16,6.10255e+06,363
0.00406,9.52109e-151,1,1.04553e-151,7.77156e-16,6.10255e+06,363
0.00408,1.55486e-149,1,1.75012e-150,1.22125e-15,6.10255e+06,363
0.0041,2.51966e-148,1,2.90691e-149,1.66533e-15,6.10255e+06,363
0.00412,1.01136e-147,1,1.18126e-148,1.88738e-15,6.10255e+06,363
0.00414,6.46452e-146,1,7.83445e-147,1.44329e-15,6.10255e+06,363
0.00416,1.02342e-144,1,1.27115e-145,9.99201e-16,6.10255e+06,363
0.00418,1.60754e-143,1,2.04627e-144,1.11022e-16,6.10255e+06,363
0.0042,2.50527e-142,1,3.26813e-143,0,6.10255e+06,363
0.00422,3.87361e-141,1,5.17831e-142,5.55112e-16,6.10255e+06,363
0.00424,5.94197e-140,1,8.13986e-141,6.66134e-16,6.10255e+06,363
0.00426,9.04245e-139,1,1.26932e-139,8.88178e-16,6.10255e+06,363
0.00428,1.36511e-137,1,1.96354e-138,8.88178e-16,6.10255e+06,363
0.0043,2.0444e-136,1,3.01306e-137,4.44089e-16,6.10255e+06,363
0.00432,3.03711e-135,1,4.58625e-136,5.55112e-16,6.10255e+06,363
0.00434,4.47549e-134,1,6.92435e-135,3.33067e-16,6.10255e+06,363
0.00436,6.54172e-133,1,1.03695e-133,3.33067e-16,6.10255e+06,363
0.00438,9.48418e-132,1,1.54019e-132,1.11022e-16,6.10255e+06,363
0.0044,1.3638e-130,1,2.26892e-131,3.33067e-16,6.10255e+06,363
0.00442,1.94503e-129,1,3.31494e-130,5.55112e-16,6.10255e+06,363
0.00444,2.75117e-128,1,4.8032e-129,1.44329e-15,6.10255e+06,363
0.00446,1.03149e-127,1,1.82264e-128,8.88178e-16,6.10255e+06,363
0.00448,5.36881e-126,1,9.83492e-127,8.88178e-16,6.10255e+06,363
0.0045,7.40659e-125,1,1.38972e-125,1.22125e-15,6.10255e+06,363
0.00452,1.01324e-123,1,1.94724e-124,1.33227e-15,6.10255e+06,363
0.00454,1.37449e-122,1,2.70542e-123,1.77636e-15,6.10255e+06,363
0.00456,1.84883e-121,1,3.72697e-122,1.88738e-15,6.10255e+06,363
0.00458,2.46579e-120,1,5.09058e-121,2.44249e-15,6.10255e+06,363
0.0046,3.26067e-119,1,6.89371e-120,1.44329e-15,6.10255e+06,363
0.00462,4.27498e-118,1,9.25544e-119,9.99201e-16,6.10255e+06,363
0.00464,5.55675e-117,1,1.23192e-117,6.66134e-16,6.10255e+06,363
0.00466,7.16062e-116,1,1.62554e-116,3.33067e-16,6.10255e+06,363
0.00468,9.14761e-115,1,2.12628e-115,4.44089e-16,6.10255e+06,363
0.0047,1.15844e-113,1,2.75699e-114,0,6.10255e+06,363
0.00472,1.45424e-112,1,3.54347e-113,2.22045e-16,6.10255e+06,363
0.00474,1.80958e-111,1,4.51421e-112,5.55112e-16,6.10255e+06,363
0.00476,2.23192e-110,1,5.70004e-111,2.22045e-16,6.10255e+06,363
0.00478,2.72849e-109,1,7.13346e-110,7.77156e-16,6.10255e+06,363
0.0048,3.30593e-108,1,8.8477e-109,1.11022e-15,6.10255e+06,363
0.00482,3.96985e-107,1,1.08756e-107,5.55112e-16,6.10255e+06,363
0.00484,4.72441e-106,1,1.32479e-106,7.77156e-16,6.10255e+06,363
0.00486,5.57179e-105,1,1.59918e-105,8.88178e-16,6.10255e+06,363
0.00488,6.51176e-104,1,1.91287e-104,0,6.10255e+06,363
0.0049,7.5412e-103,1,2.26722e-103,0,6.10255e+06,363
0.00492,8.65373e-102,1,2.66259e-102,6.66134e-16,6.10255e+06,363
0.00494,9.8394e-101,1,3.0981e-101,3.33067e-16,6.10255e+06,363
0.00496,1.10845e-99,1,3.57151e-100,2.22045e-16,6.10255e+06,363
0.00498,1.23717e-98,1,4.079e-99,9.99201e-16,6.10255e+06,363
0.005,1.36801e-97,1,4.6151e-98,3.33067e-16,6.10255e+06,363
0.00502,1.49857e-96,1,5.17268e-97,7.77156e-16,6.10255e+06,363
0.00504,1.62619e-95,1,5.74298e-96,9.99201e-16,6.10255e+06,363
0.00506,1.74806e-94,1,6.31578e-95,7.77156e-16,6.10255e+06,363
0.00508,1.86126e-93,1,6.87963e-94,1.66533e-15,6.10255e+06,363
0.0051,1.96295e-92,1,7.42217e-93,9.99201e-16,6.10255e+06,363
0.00512,6.35178e-92,1,2.42909e-92,3.33067e-16,6.10255e+06,363
0.00514,2.12118e-90,1,8.39201e-91,0,6.10255e+06,363
0.00516,2.17322e-89,1,8.79415e-90,1.11022e-16,6.10255e+06,363
0.00518,2.20495e-88,1,9.12573e-89,0,6.10255e+06,363
0.0052,2.21534e-87,1,9.37706e-88,0,6.10255e+06,363
0.00522,2.20399e-86,1,9.54047e-87,0,6.10255e+06,363
0.00524,2.17111e-85,1,9.6107e-86,6.66134e-16,6.10255e+06,363
0.00526,2.11758e-84,1,9.58521e-85,2.22045e-16,6.10255e+06,363
0.00528,2.04484e-83,1,9.46427e-84,5.55112e-16,6.10255e+06,363
0.0053,1.95487e-82,1,9.25102e-83,4.44089e-16,6.10255e+06,363
0.00532,1.8501e-81,1,8.95132e-82,1.22125e-15,6.10255e+06,363
0.00534,1.73328e-80,1,8.57348e-81,6.66134e-16,6.10255e+06,363
0.00536,1.60738e-79,1,8.12788e-80,5.55112e-16,6.10255e+06,363
0.00538,1.47543e-78,1,7.62649e-79,7.77156e-16,6.10255e+06,363
0.0054,1.34043e-77,1,7.08233e-78,4.44089e-16,6.10255e+06,363
0.00542,1.20526e-76,1,6.50891e-77,3.33067e-16,6.10255e+06,363
0.00544,1.07249e-75,1,5.91968e-76,4.44089e-16,6.10255e+06,363
0.00546,9.44432e-75,1,5.32749e-75,1.11022e-15,6.10255e+06,363
0.00548,8.22965e-74,1,4.74413e-74,7.77156e-16,6.10255e+06,363
0.0055,7.09584e-73,1,4.18e-73,1.11022e-16,6.10255e+06,363
0.00552,6.05359e-72,1,3.64382e-72,6.66134e-16,6.10255e+06,363
0.00554,5.10959e-71,1,3.1425e-71,1.11022e-16,6.10255e+06,363
0.00556,4.26676e-70,1,2.68105e-70,7.77156e-16,6.10255e+06,363
0.00558,3.52471e-69,1,2.26267e-69,7.77156e-16,6.10255e+06,363
0.0056,2.88029e-68,1,1.88886e-68,1.33227e-15,6.10255e+06,363
0.00562,2.32816e-67,1,1.5596e-67,1.55431e-15,6.10255e+06,363
0.00564,1.86135e-66,1,1.27361e-66,1.11022e-15,6.10255e+06,363
0.00566,1.47182e-65,1,1.02859e-65,8.88178e-16,6.10255e+06,363
0.00568,1.15097e-64,1,8.21502e-65,9.99201e-16,6.10255e+06,363
0.0057,8.90095e-64,1,6.48788e-64,1.55431e-15,6.10255e+06,363
0.00572,6.80673e-63,1,5.06641e-63,8.88178e-16,6.10255e+06,363
0.00574,5.14691e-62,1,3.91178e-62,1.55431e-15,6.10255e+06,363
0.00576,3.84797e-61,1,2.98604e-61,1.66533e-15,6.10255e+06,363
0.00578,2.84424e-60,1,2.25339e-60,1.22125e-15,6.10255e+06,363
0.0058,2.07837e-59,1,1.68101e-59,7.77156e-16,6.10255e+06,363
0.00582,1.50132e-58,1,1.23955e-58,0,6.10255e+06,363
0.00584,1.07198e-57,1,9.03428e-58,1.11022e-16,6.10255e+06,363
0.00586,7.56553e-57,1,6.5077e-57,7.77156e-16,6.10255e+06,363
0.00588,5.27711e-56,1,4.63271e-56,7.77156e-16,6.10255e+06,363
0.0059,3.63772e-55,1,3.25903e-55,1.11022e-15,6.10255e+06,363
0.00592,2.47805e-54,1,2.26545e-54,7.77156e-16,6.10255e+06,363
0.00594,1.66804e-53,1,1.55598e-53,9.99201e-16,6.10255e+06,363
0.00596,1.1094e-52,1,1.05586e-52,4.44089e-16,6.10255e+06,363
0.00598,7.2899e-52,1,7.07825e-52,1.22125e-15,6.10255e+06,363
0.006,4.73237e-51,1,4.68743e-51,9.99201e-16,6.10255e+06,363
0.00602,3.03476e-50,1,3.06619e-50,9.99201e-16,6.10255e+06,363
0.00604,1.92233e-49,1,1.981e-49,1.33227e-15,6.10255e+06,363
0.00606,1.2027e-48,1,1.26404e-48,3.33067e-16,6.10255e+06,363
0.00608,7.43147e-48,1,7.96507e-48,6.66134e-16,6.10255e+06,363
0.0061,4.53471e-47,1,4.95609e-47,4.44089e-16,6.10255e+06,363
0.00612,2.73242e-46,1,3.04491e-46,0,6.10255e+06,363
0.00614,1.62567e-45,1,1.84697e-45,0,6.10255e+06,363
0.00616,9.54921e-45,1,1.10601e-44,0,6.10255e+06,363
0.00618,5.53759e-44,1,6.53786e-44,0,6.10255e+06,363
0.0062,3.16996e-43,1,3.81465e-43,0,6.10255e+06,363
0.00622,1.79115e-42,1,2.19673e-42,0,6.10255e+06,363
0.00624,9.98885e-42,1,1.24844e-41,0,6.10255e+06,363
0.00626,5.49757e-41,1,7.00144e-41,0,6.10255e+06,363
0.00628,2.98578e-40,1,3.87435e-40,0,6.10255e+06,363
0.0063,1.60008e-39,1,2.11526e-39,0,6.10255e+06,363
0.00632,8.46018e-39,1,1.13931e-38,5.55112e-16,6.10255e+06,363
0.00634,4.41303e-38,1,6.05338e-38,1.11022e-16,6.10255e+06,363
0.00636,2.27078e-37,1,3.17241e-37,3.33067e-16,6.10255e+06,363
0.00638,1.15253e-36,1,1.63974e-36,1.11022e-16,6.10255e+06,363
0.0064,5.76935e-36,1,8.35829e-36,0,6.10255e+06,363
0.00642,2.84815e-35,1,4.2012e-35,0,6.10255e+06,363
0.00644,1.38649e-34,1,2.0821e-34,0,6.10255e+06,363
0.00646,6.65498e-34,1,1.01733e-33,0,6.10255e+06,363
0.00648,3.14928e-33,1,4.90011e-33,9.99201e-16,6.10255e+06,363
0.0065,1.46916e-32,1,2.32646e-32,1.11022e-15,6.10255e+06,363
0.00652,6.75573e-32,1,1.08864e-31,2.10942e-15,6.10255e+06,363
0.00654,3.06184e-31,1,5.02031e-31,2.10942e-15,6.10255e+06,363
0.00656,1.36757e-30,1,2.28132e-30,1.33227e-15,6.10255e+06,363
0.00658,6.01915e-30,1,1.02142e-29,1.44329e-15,6.10255e+06,363
0.0066,2.61028e-29,1,4.50549e-29,2.10942e-15,6.10255e+06,363
0.00662,1.11522e-28,1,1.95771e-28,1.11022e-15,6.10255e+06,363
0.00664,4.69365e-28,1,8.37869e-28,1.44329e-15,6.10255e+06,363
0.00666,1.94574e-27,1,3.53163e-27,4.44089e-16,6.10255e+06,363
0.00668,7.94388e-27,1,1.46587e-26,0,6.10255e+06,363
0.0067,3.19379e-26,1,5.9908e-26,6.66134e-16,6.10255e+06,363
0.00672,1.26432e-25,1,2.41042e-25,7.77156e-16,6.10255e+06,363
0.00674,4.92754e-25,1,9.54703e-25,1.11022e-16,6.10255e+06,363
0.00676,1.8905e-24,1,3.72184e-24,0,6.10255e+06,363
0.00678,7.13904e-24,1,1.42793e-23,4.44089e-16,6.10255e+06,363
0.0068,2.65316e-23,1,5.39081e-23,0,6.10255e+06,363
0.00682,9.70243e-23,1,2.00233e-22,0,6.10255e+06,363
0.00684,3.49071e-22,1,7.31593e-22,0,6.10255e+06,363
0.00686,1.23531e-21,1,2.62887e-21,7.77156e-16,6.10255e+06,363
0.00688,4.29908e-21,1,9.2883e-21,3.33067e-16,6.10255e+06,363
0.0069,1.47103e-20,1,3.22612e-20,3.33067e-16,6.10255e+06,363
0.00692,4.94822e-20,1,1.10137e-19,5.55112e-16,6.10255e+06,363
0.00694,1.63623e-19,1,3.69558e-19,2.22045e-16,6.10255e+06,363
0.00696,5.31958e-19,1,1.21898e-18,2.22045e-16,6.10255e+06,363
0.00698,1.70107e-18,1,3.95421e-18,7.77156e-16,6.10255e+06,363
0.007,5.34985e-18,1,1.26136e-17,7.77156e-16,6.10255e+06,363
0.00702,1.65522e-17,1,3.95786e-17,0,6.10255e+06,363
0.00704,5.0492e-17,1,1.22432e-16,9.99201e-16,6.10255e+06,363
0.00706,1.5235e-16,1,3.74615e-16,2.44249e-15,6.10255e+06,363
0.00708,4.78201e-16,1,1.19407e-15,8.77076e-15,6.10255e+06,363
0.0071,1.58945e-15,1,4.03858e-15,3.68594e-14,6.10255e+06,363
0.00712,5.58783e-15,1,1.4479e-14,1.33116e-13,6.10255e+06,363
0.00714,1.99505e-14,1,5.27714e-14,4.71845e-13,6.10255e+06,363
0.00716,7.0246e-14,1,1.89682e-13,1.62204e-12,6.10255e+06,363.001
0.00718,2.41283e-13,1,6.64868e-13,5.43288e-12,6.10255e+06,363.001
0.0072,8.0556e-13,1,2.26414e-12,1.76832e-11,6.10255e+06,363.002
0.00722,2.61261e-12,1,7.48614e-12,5.59531e-11,6.10255e+06,363.004
0.00724,8.23004e-12,1,2.40295e-11,1.72068e-10,6.10255e+06,363.008
0.00726,2.51798e-11,1,7.48742e-11,5.14246e-10,6.10255e+06,363.014
0.00728,7.48176e-11,1,2.26465e-10,1.49356e-09,6.10255e+06,363.024
0.0073,2.15891e-10,1,6.64858e-10,4.21539e-09,6.10255e+06,363.041
0.00732,6.04953e-10,1,1.8945e-09,1.1561e-08,6.10255e+06,363.069
0.00734,1.64604e-09,1,5.23933e-09,3.08091e-08,6.10255e+06,363.115
0.00736,4.3487e-09,1,1.40619e-08,7.97728e-08,6.10255e+06,363.19
0.00738,1.11542e-08,1,3.66237e-08,2.00674e-07,6.10255e+06,363.308
0.0074,2.77732e-08,0.999999,9.25515e-08,4.90392e-07,6.10255e+06,363.492
0.00742,6.71189e-08,0.999999,2.26905e-07,1.16399e-06,6.10255e+06,363.775
0.00744,1.57398e-07,0.999997,5.39578e-07,2.68301e-06,6.10255e+06,364.204
0.00746,3.58055e-07,0.999992,1.24422e-06,6.00419e-06,6.10255e+06,364.841
0.00748,7.89808e-07,0.999983,2.78111e-06,1.30405e-05,6.10255e+06,365.771
0.0075,1.68844e-06,0.999965,6.02307e-06,2.7476e-05,6.10255e+06,367.106
0.00752,3.49588e-06,0.999928,1.26313e-05,5.61302e-05,6.10255e+06,368.985
0.00754,7.00493e-06,0.999856,2.56343e-05,0.000111108,6.10255e+06,371.575
0.00756,1.35724e-05,0.999723,5.0306e-05,0.000212962,6.10255e+06,375.066
0.00758,2.54066e-05,0.999484,9.53943e-05,0.00039496,6.10255e+06,379.662
0.0076,4.5913e-05,0.999071,0.000174682,0.000708327,6.10255e+06,385.565
0.00762,8.00559e-05,0.998383,0.000308752,0.0012279,6.10255e+06,392.952
0.00764,0.000134663,0.997281,0.000526708,0.00205733,6.10255e+06,401.957
0.00766,0.000218596,0.995581,0.000867533,0.00333274,6.10255e+06,412.657
0.00768,0.000342736,0.993052,0.00138082,0.00522418,6.10255e+06,425.064
0.0077,0.000519793,0.989419,0.00212681,0.00793457,6.10255e+06,439.135
0.00772,0.00076399,0.984363,0.0031758,0.0116969,6.10255e+06,454.783
0.00774,0.00109074,0.977532,0.00460725,0.0167705,6.10255e+06,471.898
0.00776,0.00151637,0.968537,0.00650903,0.0234376,6.10255e+06,490.36
0.00778,0.00205803,0.956964,0.00897668,0.0320011,6.10255e+06,510.053
0.0078,0.00273361,0.942371,0.0121131,0.0427821,6.10255e+06,530.865
0.00782,0.00356176,0.924292,0.0160281,0.0561184,6.10255e+06,552.687
0.00784,0.00456185,0.902241,0.0208372,0.0723599,6.10255e+06,575.406
0.00786,0.00513254,0.889572,0.0236142,0.0816811,6.10255e+06,587.059
0.00788,0.00715637,0.844265,0.0336126,0.114966,6.10255e+06,622.947
0.0079,0.00794252,0.826541,0.0375479,0.127968,6.10255e+06,635.13
0.00792,0.0106615,0.764871,0.0513235,0.173144,6.10255e+06,671.852
0.00794,0.0127841,0.716446,0.0622134,0.208557,6.10255e+06,696.024
0.00796,0.0151508,0.66226,0.0744579,0.248132,6.10255e+06,719.45
0.00798,0.017741,0.602797,0.08795,0.291512,6.10255e+06,741.658
0.008,0.0205144,0.539011,0.10247,0.338004,6.10255e+06,762.194
0.00802,0.0234084,0.47237,0.117674,0.386548,6.10255e+06,780.687
0.00804,0.0263398,0.404813,0.133099,0.435747,6.10255e+06,796.912
0.00806,0.0292121,0.338602,0.148209,0.483977,6.10255e+06,810.835
0.00808,0.0319269,0.27604,0.162455,0.529578,6.10255e+06,822.61
0.0081,0.0343979,0.219157,0.175356,0.571089,6.10255e+06,832.53
0.00812,0.0365632,0.169418,0.186573,0.607446,6.10255e+06,840.953
0.00814,0.038392,0.127564,0.19594,0.638104,6.10255e+06,848.223
0.00816,0.039884,0.0936212,0.203463,0.663031,6.10255e+06,854.625
0.00818,0.0410632,0.0670319,0.209288,0.682617,6.10255e+06,860.358
0.0082,0.0415475,0.0562128,0.211632,0.690607,6.10255e+06,863.014
0.00822,0.0426477,0.0320227,0.216788,0.708541,6.10255e+06,870.25
0.00824,0.0429164,0.0262496,0.217991,0.712843,6.10255e+06,872.433
0.00826,0.043504,0.0139943,0.220476,0.722026,6.10255e+06,878.331
0.00828,0.0437588,0.00895922,0.221446,0.725836,6.10255e+06,881.733
0.0083,0.0439382,0.005617,0.222052,0.728392,6.10255e+06,884.727
0.00832,0.044064,0.0034495,0.222413,0.730073,6.10255e+06,887.334
0.00834,0.0441522,0.00207556,0.222614,0.731158,6.10255e+06,889.58
0.00836,0.0442145,0.00122419,0.222713,0.731848,6.10255e+06,891.493
0.00838,0.0442584,0.000718641,0.222751,0.732272,6.10255e+06,893.093
0.0084,0.0442899,0.00042572,0.222754,0.73253,6.10255e+06,894.411
0.00842,0.0443146,0.000235702,0.222744,0.732705,6.10255e+06,895.538
0.00844,0.0443332,0.000127689,0.222726,0.732813,6.10255e+06,896.466
0.00846,0.0443475,6.77635e-05,0.222705,0.73288,6.10255e+06,897.221
0.00848,0.0443586,3.5213e-05,0.222685,0.732922,6.10255e+06,897.83
0.0085,0.0443674,1.79158e-05,0.222667,0.732948,6.10255e+06,898.318
0.00852,0.0443743,8.92424e-06,0.222652,0.732965,6.10255e+06,898.706
0.00854,0.0443773,6.24858e-06,0.222645,0.732971,6.10255e+06,898.868
0.00856,0.0443843,2.07754e-06,0.22263,0.732984,6.10255e+06,899.25
0.00858,0.0443861,1.42401e-06,0.222626,0.732987,6.10255e+06,899.349
0.0086,0.0443905,4.44105e-07,0.222616,0.732993,6.10255e+06,899.578
0.00862,0.0443927,1.98851e-07,0.222612,0.732995,6.10255e+06,899.687
0.00864,0.0443944,8.71511e-08,0.222609,0.732997,6.10255e+06,899.769
0.00866,0.0443958,3.73863e-08,0.222606,0.732998,6.10255e+06,899.831
0.00868,0.0443968,1.5698e-08,0.222605,0.732999,6.10255e+06,899.877
0.0087,0.0443976,6.45152e-09,0.222603,0.732999,6.10255e+06,899.912
0.00872,0.0443982,2.59517e-09,0.222602,0.733,6.10255e+06,899.937
0.00874,0.0443987,1.02177e-09,0.222602,0.733,6.10255e+06,899.955
0.00876,0.044399,3.9375e-10,0.222601,0.733,6.10255e+06,899.968
0.00878,0.0443993,1.4851e-10,0.222601,0.733,6.10255e+06,899.978
0.0088,0.0443995,5.4818e-11,0.222601,0.733,6.10255e+06,899.985
0.00882,0.0443996,1.97985e-11,0.2226,0.733,6.10255e+06,899.989
0.00884,0.0443997,7.24323e-12,0.2226,0.733,6.10255e+06,899.993
0.00886,0.0443998,2.8686e-12,0.2226,0.733,6.10255e+06,899.995
0.00888,0.0443998,1.68058e-12,0.2226,0.733,6.10255e+06,899.996
0.0089,0.0443999,3.24732e-13,0.2226,0.733,6.10255e+06,899.998
0.00892,0.0443999,1.85628e-13,0.2226,0.733,6.10255e+06,899.998
0.00894,0.0444,3.36839e-14,0.2226,0.733,6.10255e+06,899.999
0.00896,0.0444,1.06e-14,0.2226,0.733,6.10255e+06,899.999
0.00898,0.0444,3.33824e-15,0.2226,0.733,6.10255e+06,900
0.009,0.0444,1.08211e-15,0.2226,0.733,6.10255e+06,900
0.00902,0.0444,3.68865e-16,0.2226,0.733,6.10255e+06,900
0.00904,0.0444,1.30623e-16,0.2226,0.733,6.10255e+06,900
0.00906,0.0444,4.68939e-17,0.2226,0.733,6.10255e+06,900
0.00908,0.0444,1.68052e-17,0.2226,0.733,6.10255e+06,900
0.0091,0.0444,5.97e-18,0.2226,0.733,6.10255e+06,900
0.00912,0.0444,2.09653e-18,0.2226,0.733,6.10255e+06,900
0.00914,0.0444,7.27076e-19,0.2226,0.733,6.10255e+06,900
0.00916,0.0444,2.48924e-19,0.2226,0.733,6.10255e+06,900
0.00918,0.0444,8.41262e-20,0.2226,0.733,6.10255e+06,900
0.0092,0.0444,2.80662e-20,0.2226,0.733,6.10255e+06,900
0.00922,0.0444,1.61329e-20,0.2226,0.733,6.10255e+06,900
0.00924,0.0444,3.0058e-21,0.2226,0.733,6.10255e+06,900
0.00926,0.0444,9.65044e-22,0.2226,0.733,6.10255e+06,900
0.00928,0.0444,3.05947e-22,0.2226,0.733,6.10255e+06,900
0.0093,0.0444,9.57828e-23,0.2226,0.733,6.10255e+06,900
0.00932,0.0444,2.96146e-23,0.2226,0.733,6.10255e+06,900
0.00934,0.0444,9.04342e-24,0.2226,0.733,6.10255e+06,900
0.00936,0.0444,2.72772e-24,0.2226,0.733,6.10255e+06,900
0.00938,0.0444,8.12719e-25,0.2226,0.733,6.10255e+06,900
0.0094,0.0444,2.39213e-25,0.2226,0.733,6.10255e+06,900
0.00942,0.0444,6.95607e-26,0.2226,0.733,6.10255e+06,900
0.00944,0.0444,1.99852e-26,0.2226,0.733,6.10255e+06,900
0.00946,0.0444,5.67348e-27,0.2226,0.733,6.10255e+06,900
0.00948,0.0444,1.59154e-27,0.2226,0.733,6.10255e+06,900
0.0095,0.0444,4.41205e-28,0.2226,0.733,6.10255e+06,900
0.00952,0.0444,1.20878e-28,0.2226,0.733,6.10255e+06,900
0.00954,0.0444,3.27319e-29,0.2226,0.733,6.10255e+06,900
0.00956,0.0444,1.69584e-29,0.2226,0.733,6.10255e+06,900
0.00958,0.0444,2.31781e-30,0.2226,0.733,6.10255e+06,900
0.0096,0.0444,6.062e-31,0.2226,0.733,6.10255e+06,900
0.00962,0.0444,1.56741e-31,0.2226,0.733,6.10255e+06,900
0.00964,0.0444,4.00687e-32,0.2226,0.733,6.10255e+06,900
0.00966,0.0444,1.01277e-32,0.2226,0.733,6.10255e+06,900
0.00968,0.0444,2.5312e-33,0.2226,0.733,6.10255e+06,900
0.0097,0.0444,6.25575e-34,0.2226,0.733,6.10255e+06,900
0.00972,0.0444,1.52896e-34,0.2226,0.733,6.10255e+06,900
0.00974,0.0444,3.69575e-35,0.2226,0.733,6.10255e+06,900
0.00976,0.0444,8.83536e-36,0.2226,0.733,6.10255e+06,900
0.00978,0.0444,2.08924e-36,0.2226,0.733,6.10255e+06,900
0.0098,0.0444,4.88672e-37,0.2226,0.733,6.10255e+06,900
0.00982,0.0444,1.13068e-37,0.2226,0.733,6.10255e+06,900
0.00984,0.0444,2.58807e-38,0.2226,0.733,6.10255e+06,900
0.00986,0.0444,5.86066e-39,0.2226,0.733,6.10255e+06,900
0.00988,0.0444,1.31294e-39,0.2226,0.733,6.10255e+06,900