x,NH3,C7H16,O2,N2,p,T
0,1.67982e-322,1,0,0,6.10255e+06,363
2e-05,0,1,0,2.22045e-16,6.10255e+06,363
4e-05,1.63042e-322,1,1.4822e-322,2.22045e-16,6.10255e+06,363
6e-05,1.58101e-322,1,1.33398e-322,1.11022e-16,6.10255e+06,363
8e-05,3.45846e-323,1,0,0,6.10255e+06,363
0.0001,0,1,1.72923e-322,2.22045e-16,6.10255e+06,363
0.00012,0,1,0,0,6.10255e+06,363
0.00014,0,1,0,5.55112e-16,6.10255e+06,363
0.00016,0,1,1.58101e-322,8.88178e-16,6.10255e+06,363
0.00018,0,1,0,9.99201e-16,6.10255e+06,363
0.0002,1.97626e-323,1,0,1.22125e-15,6.10255e+06,363
0.00022,2.47033e-323,1,0,1.11022e-15,6.10255e+06,363
0.00024,0,1,1.5316e-322,5.55112e-16,6.10255e+06,363
0.00026,1.38338e-322,1,0,2.22045e-16,6.10255e+06,363
0.00028,3.95253e-323,1,1.33398e-322,2.22045e-16,6.10255e+06,363
0.0003,1.28457e-322,1,0,7.77156e-16,6.10255e+06,363
0.00032,1.43279e-322,1,0,1.33227e-15,6.10255e+06,363
0.00034,2.47033e-323,1,0,1.33227e-15,6.10255e+06,363
0.00036,1.33398e-322,1,0,1.33227e-15,6.10255e+06,363
0.00038,1.97626e-323,1,0,3.33067e-16,6.10255e+06,363
0.0004,1.67982e-322,1,0,3.33067e-16,6.10255e+06,363
0.00042,0,1,1.23516e-322,5.55112e-16,6.10255e+06,363
0.00044,0,1,0,1.11022e-16,6.10255e+06,363
0.00046,0,1,1.43279e-322,5.55112e-16,6.10255e+06,363
0.00048,0,1,1.58101e-322,3.33067e-16,6.10255e+06,363
0.0005,0,1,0,4.44089e-16,6.10255e+06,363
0.00052,1.38338e-322,1,0,2.22045e-16,6.10255e+06,363
0.00054,0,1,0,1.11022e-16,6.10255e+06,363
0.00056,1.38338e-322,1,1.38338e-322,2.22045e-16,6.10255e+06,363
0.00058,0,1,0,8.88178e-16,6.10255e+06,363
0.0006,0,1,1.33398e-322,4.44089e-16,6.10255e+06,363
0.00062,0,1,3.70549e-322,2.22045e-16,6.10255e+06,363
0.00064,0,1,6.42285e-322,1.11022e-16,6.10255e+06,363
0.00066,0,1,3.31024e-322,6.66134e-16,6.10255e+06,363
0.00068,1.58101e-322,1,6.62048e-322,8.88178e-16,6.10255e+06,363
0.0007,2.47033e-323,1,3.50787e-322,1.11022e-15,6.10255e+06,363
0.00072,0,1,6.66989e-322,1.22125e-15,6.10255e+06,363
0.00074,0,1,4.5454e-322,9.99201e-16,6.10255e+06,363
0.00076,0,1,6.52167e-322,1.33227e-15,6.10255e+06,363
0.00078,0,1,8.54734e-322,1.22125e-15,6.10255e+06,363
0.0008,0,1,1.16599e-321,1.33227e-15,6.10255e+06,363
0.00082,0,1,1.15117e-321,1.11022e-15,6.10255e+06,363
0.00084,0,1,1.13141e-321,1.22125e-15,6.10255e+06,363
0.00086,0,1,1.35868e-321,9.99201e-16,6.10255e+06,363
0.00088,2.47033e-323,1,1.13141e-321,1.88738e-15,6.10255e+06,363
0.0009,0,1,1.36856e-321,1.88738e-15,6.10255e+06,363
0.00092,0,1,1.99603e-321,1.55431e-15,6.10255e+06,363
0.00094,0,1,2.50491e-321,1.9984e-15,6.10255e+06,363
0.00096,0,1,2.54444e-321,1.77636e-15,6.10255e+06,363
0.00098,0,1,2.49009e-321,1.33227e-15,6.10255e+06,363
0.001,0,1,2.50985e-321,1.11022e-15,6.10255e+06,363
0.00102,0,1,2.55926e-321,1.22125e-15,6.10255e+06,363
0.00104,0,1,2.53456e-321,8.88178e-16,6.10255e+06,363
0.00106,0,1,2.56914e-321,1.55431e-15,6.10255e+06,363
0.00108,9.88131e-324,1,2.65313e-321,1.22125e-15,6.10255e+06,363
0.0011,1.23516e-322,1,2.66301e-321,1.22125e-15,6.10255e+06,363
0.00112,1.28457e-322,1,3.07309e-321,8.88178e-16,6.10255e+06,363
0.00114,0,1,3.16696e-321,1.11022e-15,6.10255e+06,363
0.00116,1.63042e-322,1,3.16696e-321,7.77156e-16,6.10255e+06,363
0.00118,0,1,3.19166e-321,6.66134e-16,6.10255e+06,363
0.0012,0,1,3.23613e-321,1.11022e-15,6.10255e+06,363
0.00122,1.38338e-322,1,3.13732e-321,9.99201e-16,6.10255e+06,363
0.00124,0,1,3.24601e-321,6.66134e-16,6.10255e+06,363
0.00126,0,1,3.17684e-321,8.88178e-16,6.10255e+06,363
0.00128,1.5316e-322,1,3.13732e-321,1.22125e-15,6.10255e+06,363
0.0013,0,1,3.24107e-321,1.11022e-15,6.10255e+06,363
0.00132,0,1,3.11261e-321,9.99201e-16,6.10255e+06,363
0.00134,0,1,3.21143e-321,6.66134e-16,6.10255e+06,363
0.00136,0,1,3.11755e-321,7.77156e-16,6.10255e+06,363
0.00138,0,1,3.23119e-321,4.44089e-16,6.10255e+06,363
0.0014,0,1,3.32506e-321,4.44089e-16,6.10255e+06,363
0.00142,0,1,3.10767e-321,2.22045e-16,6.10255e+06,363
0.00144,0,1,3.1966e-321,1.11022e-16,6.10255e+06,363
0.00146,0,1,3.20155e-321,0,6.10255e+06,363
0.00148,1.4822e-322,1,8.17679e-321,1.11022e-16,6.10255e+06,363
0.0015,1.63042e-322,1,1.80996e-319,1.11022e-16,6.10255e+06,363
0.00152,1.4822e-322,1,5.82008e-318,3.33067e-16,6.10255e+06,363
0.00154,0,1,1.89064e-316,0,6.10255e+06,363
0.00156,0,1,6.11414e-315,2.22045e-16,6.10255e+06,363
0.00158,0,1,1.96747e-313,1.11022e-16,6.10255e+06,363
0.0016,4.33296e-321,1,6.29966e-312,2.22045e-16,6.10255e+06,363
0.00162,1.58748e-319,1,2.00703e-310,1.11022e-16,6.10255e+06,363
0.00164,5.46195e-318,1,6.36229e-309,2.22045e-16,6.10255e+06,363
0.00166,1.8724e-316,1,2.00673e-307,1.11022e-16,6.10255e+06,363
0.00168,6.3866e-315,1,6.29762e-306,3.33067e-16,6.10255e+06,363
0.0017,2.16729e-313,1,1.96639e-304,3.33067e-16,6.10255e+06,363
0.00172,7.31701e-312,1,6.10885e-303,0,6.10255e+06,363
0.00174,2.45761e-310,1,1.88818e-301,2.22045e-16,6.10255e+06,363
0.00176,8.21199e-309,1,5.80651e-300,2.22045e-16,6.10255e+06,363
0.00178,2.72982e-307,1,1.77651e-298,6.66134e-16,6.10255e+06,363
0.0018,9.0274e-306,1,5.40746e-297,5.55112e-16,6.10255e+06,363
0.00182,2.96981e-304,1,1.63753e-295,6.66134e-16,6.10255e+06,363
0.00184,9.71906e-303,1,4.93341e-294,1.11022e-16,6.10255e+06,363
0.00186,3.16406e-301,1,1.47864e-292,3.33067e-16,6.10255e+06,363
0.00188,1.02466e-299,1,4.40885e-291,1.11022e-16,6.10255e+06,363
0.0019,3.30087e-298,1,1.30778e-289,0,6.10255e+06,363
0.00192,1.05774e-296,1,3.85903e-288,0,6.10255e+06,363
0.00194,3.37155e-295,1,1.1328e-286,0,6.10255e+06,363
0.00196,1.06898e-293,1,3.30792e-285,1.11022e-16,6.10255e+06,363
0.00198,3.37126e-292,1,9.60891e-284,3.33067e-16,6.10255e+06,363
0.002,1.05753e-290,1,2.77654e-282,0,6.10255e+06,363
0.00202,3.29961e-289,1,7.98067e-281,0,6.10255e+06,363
0.00204,1.02399e-287,1,2.28178e-279,2.22045e-16,6.10255e+06,363
0.00206,5.69291e-287,1,1.21766e-278,1.11022e-16,6.10255e+06,363
0.00208,9.70344e-285,1,1.83573e-276,5.55112e-16,6.10255e+06,363
0.0021,2.96284e-283,1,5.16531e-275,4.44089e-16,6.10255e+06,363
0.00212,8.99756e-282,1,1.44563e-273,4.44089e-16,6.10255e+06,363
0.00214,2.71751e-280,1,4.0242e-272,8.88178e-16,6.10255e+06,363
0.00216,8.16278e-279,1,1.1142e-270,7.77156e-16,6.10255e+06,363
0.00218,2.43848e-277,1,3.06827e-269,2.22045e-16,6.10255e+06,363
0.0022,7.24449e-276,1,8.40369e-268,2.22045e-16,6.10255e+06,363
0.00222,2.1404e-274,1,2.28919e-266,2.22045e-16,6.10255e+06,363
0.00224,6.28893e-273,1,6.2019e-265,0,6.10255e+06,363
0.00226,1.83757e-271,1,1.67105e-263,5.55112e-16,6.10255e+06,363
0.00228,5.33934e-270,1,4.47784e-262,1.11022e-16,6.10255e+06,363
0.0023,1.54277e-268,1,1.19332e-260,0,6.10255e+06,363
0.00232,4.43282e-267,1,3.16259e-259,0,6.10255e+06,363
0.00234,1.26653e-265,1,8.33535e-258,0,6.10255e+06,363
0.00236,3.5983e-264,1,2.18469e-256,0,6.10255e+06,363
0.00238,1.01653e-262,1,5.69422e-255,0,6.10255e+06,363
0.0024,2.85547e-261,1,1.47588e-253,0,6.10255e+06,363
0.00242,7.97553e-260,1,3.80389e-252,0,6.10255e+06,363
0.00244,2.21493e-258,1,9.74902e-251,0,6.10255e+06,363
0.00246,6.11605e-257,1,2.48451e-249,0,6.10255e+06,363
0.00248,1.67913e-255,1,6.29596e-248,0,6.10255e+06,363
0.0025,4.58346e-254,1,1.5864e-246,0,6.10255e+06,363
0.00252,1.24391e-252,1,3.97457e-245,0,6.10255e+06,363
0.00254,3.35632e-251,1,9.90105e-244,0,6.10255e+06,363
0.00256,9.00346e-250,1,2.45234e-242,2.22045e-16,6.10255e+06,363
0.00258,2.40115e-248,1,6.03921e-241,1.11022e-16,6.10255e+06,363
0.0026,6.36625e-247,1,1.47867e-239,1.11022e-16,6.10255e+06,363
0.00262,1.67802e-245,1,3.59951e-238,0,6.10255e+06,363
0.00264,4.39691e-244,1,8.71148e-237,0,6.10255e+06,363
0.00266,1.14533e-242,1,2.09607e-235,0,6.10255e+06,363
0.00268,2.96576e-241,1,5.01394e-234,3.33067e-16,6.10255e+06,363
0.0027,7.63409e-240,1,1.19234e-232,2.22045e-16,6.10255e+06,363
0.00272,1.95337e-238,1,2.81879e-231,2.22045e-16,6.10255e+06,363
0.00274,4.96832e-237,1,6.62456e-230,1.11022e-16,6.10255e+06,363
0.00276,1.2561e-235,1,1.54765e-228,0,6.10255e+06,363
0.00278,3.15661e-234,1,3.59423e-227,0,6.10255e+06,363
0.0028,7.88479e-233,1,8.2974e-226,3.33067e-16,6.10255e+06,363
0.00282,1.9576e-231,1,1.90404e-224,0,6.10255e+06,363
0.00284,4.83074e-230,1,4.34305e-223,0,6.10255e+06,363
0.00286,1.18481e-228,1,9.84675e-222,1.11022e-16,6.10255e+06,363
0.00288,2.88819e-227,1,2.21901e-220,1.11022e-16,6.10255e+06,363
0.0029,6.99731e-226,1,4.97033e-219,0,6.10255e+06,363
0.00292,1.68484e-224,1,1.10652e-217,1.11022e-16,6.10255e+06,363
0.00294,4.03177e-223,1,2.44837e-216,0,6.10255e+06,363
0.00296,9.58822e-222,1,5.38423e-215,1.11022e-16,6.10255e+06,363
0.00298,2.26608e-220,1,1.17677e-213,5.55112e-16,6.10255e+06,363
0.003,5.32226e-219,1,2.55606e-212,1.11022e-16,6.10255e+06,363
0.00302,1.24221e-217,1,5.51761e-211,3.33067e-16,6.10255e+06,363
0.00304,2.88111e-216,1,1.18365e-209,2.22045e-16,6.10255e+06,363
0.00306,6.64024e-215,1,2.52334e-208,4.44089e-16,6.10255e+06,363
0.00308,1.52074e-213,1,5.34565e-207,1.11022e-16,6.10255e+06,363
0.0031,3.46074e-212,1,1.12535e-205,5.55112e-16,6.10255e+06,363
0.00312,7.82548e-211,1,2.35409e-204,4.44089e-16,6.10255e+06,363
0.00314,1.75823e-209,1,4.89327e-203,2.22045e-16,6.10255e+06,363
0.00316,3.92509e-208,1,1.01066e-201,2.22045e-16,6.10255e+06,363
0.00318,8.70616e-207,1,2.07411e-200,2.22045e-16,6.10255e+06,363
0.0032,1.91865e-205,1,4.22927e-199,0,6.10255e+06,363
0.00322,4.20095e-204,1,8.56835e-198,0,6.10255e+06,363
0.00324,9.13847e-203,1,1.72471e-196,0,6.10255e+06,363
0.00326,1.97498e-201,1,3.44914e-195,0,6.10255e+06,363
0.00328,4.24037e-200,1,6.85284e-194,0,6.10255e+06,363
0.0033,9.04461e-199,1,1.35264e-192,0,6.10255e+06,363
0.00332,1.9165e-197,1,2.6524e-191,0,6.10255e+06,363
0.00334,4.03416e-196,1,5.16685e-190,0,6.10255e+06,363
0.00336,8.43548e-195,1,9.99842e-189,0,6.10255e+06,363
0.00338,1.75215e-193,1,1.92197e-187,0,6.10255e+06,363
0.0034,3.61513e-192,1,3.66991e-186,1.11022e-16,6.10255e+06,363
0.00342,7.40902e-191,1,6.96066e-185,4.44089e-16,6.10255e+06,363
0.00344,1.50824e-189,1,1.31135e-183,0,6.10255e+06,363
0.00346,3.04959e-188,1,2.45384e-182,0,6.10255e+06,363
0.00348,6.12443e-187,1,4.5606e-181,4.44089e-16,6.10255e+06,363
0.0035,1.2216e-185,1,8.41851e-180,1.11022e-16,6.10255e+06,363
0.00352,2.42006e-184,1,1.54338e-178,2.22045e-16,6.10255e+06,363
0.00354,4.76147e-183,1,2.81009e-177,0,6.10255e+06,363
0.00356,9.3039e-182,1,5.08122e-176,2.22045e-16,6.10255e+06,363
0.00358,1.80546e-180,1,9.12436e-175,0,6.10255e+06,363
0.0036,3.47935e-179,1,1.62708e-173,0,6.10255e+06,363
0.00362,6.65863e-178,1,2.88124e-172,0,6.10255e+06,363
0.00364,1.26543e-176,1,5.06636e-171,5.55112e-16,6.10255e+06,363
0.00366,2.38805e-175,1,8.84601e-170,3.33067e-16,6.10255e+06,363
0.00368,4.47499e-174,1,1.53363e-168,2.22045e-16,6.10255e+06,363
0.0037,8.3267e-173,1,2.63999e-167,7.77156e-16,6.10255e+06,363
0.00372,1.53842e-171,1,4.51211e-166,5.55112e-16,6.10255e+06,363
0.00374,2.82218e-170,1,7.65664e-165,2.22045e-16,6.10255e+06,363
0.00376,5.14034e-169,1,1.28992e-163,6.66134e-16,6.10255e+06,363
0.00378,9.29577e-168,1,2.15747e-162,4.44089e-16,6.10255e+06,363
0.0038,1.66898e-166,1,3.58233e-161,9.99201e-16,6.10255e+06,363
0.00382,2.97496e-165,1,5.90491e-160,5.55112e-16,6.10255e+06,363
0.00384,5.26455e-164,1,9.66212e-159,2.22045e-16,6.10255e+06,363
0.00386,9.24868e-163,1,1.56939e-157,2.22045e-16,6.10255e+06,363
0.00388,1.61296e-161,1,2.5303e-156,5.55112e-16,6.10255e+06,363
0.0039,2.79244e-160,1,4.04932e-155,5.55112e-16,6.10255e+06,363
0.00392,4.79893e-159,1,6.43201e-154,3.33067e-16,6.10255e+06,363
0.00394,8.18643e-158,1,1.01403e-152,1.11022e-16,6.10255e+06,363
0.00396,1.38619e-156,1,1.58665e-151,1.11022e-15,6.10255e+06,363
0.00398,2.32978e-155,1,2.4639e-150,0,6.10255e+06,363
0.004,3.88652e-154,1,3.79716e-149,3.33067e-16,6.10255e+06,363
0.00402,6.43495e-153,1,5.80731e-148,1.11022e-15,6.10255e+06,363
0.00404,1.05744e-151,1,8.81364e-147,9.99201e-16,6.10255e+06,363
0.00406,1.72458e-150,1,1.32735e-145,5.55112e-16,6.10255e+06,363
0.00408,2.79131e-149,1,1.98358e-144,3.33067e-16,6.10255e+06,363
0.0041,4.48356e-148,1,2.94124e-143,1.11022e-16,6.10255e+06,363
0.00412,1.79178e-147,1,1.12927e-142,5.55112e-16,6.10255e+06,363
0.00414,1.13048e-145,1,6.31661e-141,6.66134e-16,6.10255e+06,363
0.00416,1.77444e-144,1,9.14796e-140,0,6.10255e+06,363
0.00418,2.76373e-143,1,1.31437e-138,8.88178e-16,6.10255e+06,363
0.0042,4.27121e-142,1,1.87348e-137,9.99201e-16,6.10255e+06,363
0.00422,6.54958e-141,1,2.64913e-136,1.11022e-16,6.10255e+06,363
0.00424,9.96483e-140,1,3.71587e-135,0,6.10255e+06,363
0.00426,1.5042e-138,1,5.17017e-134,0,6.10255e+06,363
0.00428,2.25273e-137,1,7.13543e-133,1.11022e-16,6.10255e+06,363
0.0043,3.34705e-136,1,9.76764e-132,6.66134e-16,6.10255e+06,363
0.00432,4.93348e-135,1,1.32616e-130,4.44089e-16,6.10255e+06,363
0.00434,7.21387e-134,1,1.78575e-129,8.88178e-16,6.10255e+06,363
0.00436,1.04639e-132,1,2.38478e-128,1.44329e-15,6.10255e+06,363
0.00438,1.5056e-131,1,3.15834e-127,1.88738e-15,6.10255e+06,363
0.0044,2.14886e-130,1,4.14797e-126,1.33227e-15,6.10255e+06,363
0.00442,3.04208e-129,1,5.40209e-125,1.22125e-15,6.10255e+06,363
0.00444,4.27153e-128,1,6.97618e-124,1.33227e-15,6.10255e+06,363
0.00446,1.59571e-127,1,2.49899e-123,1.22125e-15,6.10255e+06,363
0.00448,8.21671e-126,1,1.13409e-121,7.77156e-16,6.10255e+06,363
0.0045,1.12556e-124,1,1.42753e-120,5.55112e-16,6.10255e+06,363
0.00452,1.52908e-123,1,1.78147e-119,1.33227e-15,6.10255e+06,363
0.00454,2.06e-122,1,2.204e-118,1.44329e-15,6.10255e+06,363
0.00456,2.75207e-121,1,2.7031e-117,1.55431e-15,6.10255e+06,363
0.00458,3.64582e-120,1,3.28633e-116,1.55431e-15,6.10255e+06,363
0.0046,4.78913e-119,1,3.96042e-115,9.99201e-16,6.10255e+06,363
0.00462,6.23776e-118,1,4.73078e-114,1.11022e-15,6.10255e+06,363
0.00464,8.05555e-117,1,5.601e-113,1.33227e-15,6.10255e+06,363
0.00466,1.03143e-115,1,6.57233e-112,1.9984e-15,6.10255e+06,363
0.00468,1.30932e-114,1,7.64319e-111,1.9984e-15,6.10255e+06,363
0.0047,1.64777e-113,1,8.80869e-110,1.66533e-15,6.10255e+06,363
0.00472,2.05577e-112,1,1.00603e-108,1.11022e-15,6.10255e+06,363
0.00474,2.54252e-111,1,1.13854e-107,1.33227e-15,6.10255e+06,363
0.00476,3.11709e-110,1,1.27675e-106,1.55431e-15,6.10255e+06,363
0.00478,3.78801e-109,1,1.41862e-105,7.77156e-16,6.10255e+06,363
0.0048,4.56281e-108,1,1.56171e-104,1.22125e-15,6.10255e+06,363
0.00482,5.44749e-107,1,1.70332e-103,6.66134e-16,6.10255e+06,363
0.00484,6.44593e-106,1,1.84045e-102,9.99201e-16,6.10255e+06,363
0.00486,7.55929e-105,1,1.97001e-101,7.77156e-16,6.10255e+06,363
0.00488,8.7855e-104,1,2.08885e-100,1.55431e-15,6.10255e+06,363
0.0049,1.01186e-102,1,2.19389e-99,4.44089e-16,6.10255e+06,363
0.00492,1.15486e-101,1,2.28231e-98,0,6.10255e+06,363
0.00494,1.30609e-100,1,2.35158e-97,1.11022e-16,6.10255e+06,363
0.00496,1.46364e-99,1,2.39967e-96,5.55112e-16,6.10255e+06,363
0.00498,1.62513e-98,1,2.42508e-95,9.99201e-16,6.10255e+06,363
0.005,1.78782e-97,1,2.42695e-94,1.44329e-15,6.10255e+06,363
0.00502,1.94857e-96,1,2.40511e-93,1.66533e-15,6.10255e+06,363
0.00504,2.10402e-95,1,2.36006e-92,9.99201e-16,6.10255e+06,363
0.00506,2.25063e-94,1,2.293e-91,1.44329e-15,6.10255e+06,363
0.00508,2.38483e-93,1,2.20575e-90,8.88178e-16,6.10255e+06,363
0.0051,2.50318e-92,1,2.10065e-89,6.66134e-16,6.10255e+06,363
0.00512,8.08089e-92,1,6.45822e-89,7.77156e-16,6.10255e+06,363
0.00514,2.67994e-90,1,1.84841e-87,2.22045e-16,6.10255e+06,363
0.00516,2.73327e-89,1,1.70765e-86,2.22045e-16,6.10255e+06,363
0.00518,2.76083e-88,1,1.56154e-85,0,6.10255e+06,363
0.0052,2.76169e-87,1,1.41332e-84,1.44329e-15,6.10255e+06,363
0.00522,2.7357e-86,1,1.26601e-83,1.66533e-15,6.10255e+06,363
0.00524,2.68348e-85,1,1.12232e-82,9.99201e-16,6.10255e+06,363
0.00526,2.60642e-84,1,9.84608e-82,3.33067e-16,6.10255e+06,363
0.00528,2.50659e-83,1,8.54769e-81,5.55112e-16,6.10255e+06,363
0.0053,2.38668e-82,1,7.34264e-80,5.55112e-16,6.10255e+06,363
0.00532,2.24986e-81,1,6.24097e-79,1.11022e-16,6.10255e+06,363
0.00534,2.09964e-80,1,5.24839e-78,2.22045e-16,6.10255e+06,363
0.00536,1.93971e-79,1,4.3667e-77,1.11022e-16,6.10255e+06,363
0.00538,1.77384e-78,1,3.5943e-76,0,6.10255e+06,363
0.0054,1.60564e-77,1,2.92676e-75,1.11022e-16,6.10255e+06,363
0.00542,1.43853e-76,1,2.3575e-74,1.11022e-16,6.10255e+06,363
0.00544,1.27557e-75,1,1.87842e-73,2.22045e-16,6.10255e+06,363.001
0.00546,1.11938e-74,1,1.48044e-72,5.55112e-16,6.10255e+06,363.001
0.00548,9.72105e-74,1,1.15406e-71,6.66134e-16,6.10255e+06,363.001
0.0055,8.35394e-73,1,8.89801e-71,0,6.10255e+06,363.001
0.00552,7.10372e-72,1,6.78531e-70,1.22125e-15,6.10255e+06,363.001
0.00554,5.97684e-71,1,5.11737e-69,9.99201e-16,6.10255e+06,363.001
0.00556,4.97535e-70,1,3.81693e-68,4.44089e-16,6.10255e+06,363.001
0.00558,4.09748e-69,1,2.81557e-67,0,6.10255e+06,363.001
0.0056,3.33831e-68,1,2.05398e-66,2.22045e-16,6.10255e+06,363.001
0.00562,2.69045e-67,1,1.48184e-65,0,6.10255e+06,363.001
0.00564,2.1448e-66,1,1.05727e-64,0,6.10255e+06,363.001
0.00566,1.69117e-65,1,7.46021e-64,0,6.10255e+06,363.001
0.00568,1.31886e-64,1,5.20605e-63,7.77156e-16,6.10255e+06,363.001
0.0057,1.01716e-63,1,3.59311e-62,8.88178e-16,6.10255e+06,363.001
0.00572,7.75783e-63,1,2.45276e-61,1.11022e-15,6.10255e+06,363.001
0.00574,5.85084e-62,1,1.65609e-60,1.22125e-15,6.10255e+06,363.001
0.00576,4.36312e-61,1,1.10609e-59,1.44329e-15,6.10255e+06,363.001
0.00578,3.21698e-60,1,7.3081e-59,1.77636e-15,6.10255e+06,363.001
0.0058,2.345e-59,1,4.77716e-58,9.99201e-16,6.10255e+06,363.001
0.00582,1.68987e-58,1,3.08983e-57,1.22125e-15,6.10255e+06,363.001
0.00584,1.20378e-57,1,1.97766e-56,1.55431e-15,6.10255e+06,363.001
0.00586,8.47617e-57,1,1.2528e-55,1.77636e-15,6.10255e+06,363.001
0.00588,5.89898e-56,1,7.85589e-55,1.66533e-15,6.10255e+06,363.001
0.0059,4.05742e-55,1,4.87711e-54,6.66134e-16,6.10255e+06,363.001
0.00592,2.75797e-54,1,2.99821e-53,9.99201e-16,6.10255e+06,363.001
0.00594,1.85251e-53,1,1.82547e-52,1.44329e-15,6.10255e+06,363.001
0.00596,1.22953e-52,1,1.10099e-51,1.33227e-15,6.10255e+06,363.001
0.00598,8.06278e-52,1,6.57927e-51,2.66454e-15,6.10255e+06,363.001
0.006,5.22361e-51,1,3.89614e-50,1.9984e-15,6.10255e+06,363.001
0.00602,3.34321e-50,1,2.28683e-49,2.66454e-15,6.10255e+06,363.001
0.00604,2.11363e-49,1,1.3306e-48,1.77636e-15,6.10255e+06,363.001
0.00606,1.31989e-48,1,7.676e-48,1.88738e-15,6.10255e+06,363.001
0.00608,8.14048e-48,1,4.39084e-47,1.33227e-15,6.10255e+06,363.001
0.0061,4.95834e-47,1,2.49068e-46,1.22125e-15,6.10255e+06,363.001
0.00612,2.98236e-46,1,1.40109e-45,1.22125e-15,6.10255e+06,363.001
0.00614,1.77128e-45,1,7.81604e-45,6.66134e-16,6.10255e+06,363.001
0.00616,1.03868e-44,1,4.32376e-44,7.77156e-16,6.10255e+06,363.001
0.00618,6.01325e-44,1,2.37165e-43,8.88178e-16,6.10255e+06,363.001
0.0062,3.43663e-43,1,1.28971e-42,1.11022e-16,6.10255e+06,363.001
0.00622,1.93873e-42,1,6.95198e-42,0,6.10255e+06,363.001
0.00624,1.07951e-41,1,3.71372e-41,1.11022e-16,6.10255e+06,363.001
0.00626,5.93226e-41,1,1.96555e-40,0,6.10255e+06,363.001
0.00628,3.2171e-40,1,1.03042e-39,8.88178e-16,6.10255e+06,363.001
0.0063,1.72156e-39,1,5.34904e-39,1.88738e-15,6.10255e+06,363.001
0.00632,9.08984e-39,1,2.74874e-38,1.9984e-15,6.10255e+06,363.001
0.00634,4.73509e-38,1,1.39782e-37,2.44249e-15,6.10255e+06,363.001
0.00636,2.43332e-37,1,7.03221e-37,2.55351e-15,6.10255e+06,363.002
0.00638,1.23348e-36,1,3.49881e-36,4.32987e-15,6.10255e+06,363.002
0.0064,6.1672e-36,1,1.72108e-35,2.9976e-15,6.10255e+06,363.002
0.00642,3.04107e-35,1,8.36766e-35,1.55431e-15,6.10255e+06,363.002
0.00644,1.4788e-34,1,4.01979e-34,8.88178e-16,6.10255e+06,363.002
0.00646,7.09072e-34,1,1.90756e-33,5.55112e-16,6.10255e+06,363.002
0.00648,3.35221e-33,1,8.93945e-33,1.11022e-15,6.10255e+06,363.002
0.0065,1.56238e-32,1,4.13609e-32,2.22045e-16,6.10255e+06,363.002
0.00652,7.1781e-32,1,1.88889e-31,5.55112e-16,6.10255e+06,363.002
0.00654,3.25054e-31,1,8.5126e-31,1.33227e-15,6.10255e+06,363.002
0.00656,1.45069e-30,1,3.7849e-30,1.11022e-15,6.10255e+06,363.002
0.00658,6.37997e-30,1,1.65993e-29,1.9984e-15,6.10255e+06,363.002
0.0066,2.76462e-29,1,7.17917e-29,1.44329e-15,6.10255e+06,363.002
0.00662,1.18025e-28,1,3.06142e-28,1.66533e-15,6.10255e+06,363.002
0.00664,4.96348e-28,1,1.28691e-27,1.22125e-15,6.10255e+06,363.002
0.00666,2.05597e-27,1,5.3318e-27,9.99201e-16,6.10255e+06,363.003
0.00668,8.38723e-27,1,2.1768e-26,7.77156e-16,6.10255e+06,363.003
0.0067,3.3693e-26,1,8.75613e-26,2.44249e-15,6.10255e+06,363.003
0.00672,1.3327e-25,1,3.46963e-25,3.66374e-15,6.10255e+06,363.003
0.00674,5.18978e-25,1,1.35414e-24,2.22045e-15,6.10255e+06,363.003
0.00676,1.98949e-24,1,5.20468e-24,1.88738e-15,6.10255e+06,363.003
0.00678,7.5069e-24,1,1.96973e-23,3.33067e-16,6.10255e+06,363.003
0.0068,2.78777e-23,1,7.33912e-23,1.11022e-16,6.10255e+06,363.003
0.00682,1.01878e-22,1,2.69179e-22,1.11022e-15,6.10255e+06,363.003
0.00684,3.66337e-22,1,9.71711e-22,0,6.10255e+06,363.004
0.00686,1.296e-21,1,3.45201e-21,0,6.10255e+06,363.004
0.00688,4.51028e-21,1,1.20667e-20,0,6.10255e+06,363.004
0.0069,1.54394e-20,1,4.14984e-20,0,6.10255e+06,363.004
0.00692,5.19804e-20,1,1.40394e-19,2.22045e-16,6.10255e+06,363.004
0.00694,1.72097e-19,1,4.67175e-19,6.66134e-16,6.10255e+06,363.004
0.00696,5.60226e-19,1,1.52878e-18,1.11022e-16,6.10255e+06,363.005
0.00698,1.79262e-18,1,4.91844e-18,4.44089e-16,6.10255e+06,363.005
0.007,5.63568e-18,1,1.55495e-17,0,6.10255e+06,363.005
0.00702,1.73763e-17,1,4.82168e-17,8.88178e-16,6.10255e+06,363.005
0.00704,5.28417e-17,1,1.47486e-16,4.44089e-16,6.10255e+06,363.005
0.00706,1.61105e-16,1,4.52562e-16,2.66454e-15,6.10255e+06,363.006
0.00708,5.04464e-16,1,1.42798e-15,1.16573e-14,6.10255e+06,363.006
0.0071,1.68374e-15,1,4.8142e-15,4.58522e-14,6.10255e+06,363.006
0.00712,5.93646e-15,1,1.71876e-14,1.60649e-13,6.10255e+06,363.007
0.00714,2.12197e-14,1,6.22964e-14,5.59996e-13,6.10255e+06,363.007
0.00716,7.47381e-14,1,2.22572e-13,1.90925e-12,6.10255e+06,363.008
0.00718,2.56728e-13,1,7.75507e-13,6.34892e-12,6.10255e+06,363.009
0.0072,8.57221e-13,1,2.62602e-12,2.05401e-11,6.10255e+06,363.011
0.00722,2.78015e-12,1,8.63479e-12,6.46121e-11,6.10255e+06,363.013
0.00724,8.75688e-12,1,2.75672e-11,1.97565e-10,6.10255e+06,363.017
0.00726,2.67861e-11,1,8.54457e-11,5.87157e-10,6.10255e+06,363.024
0.00728,7.95663e-11,1,2.57111e-10,1.69608e-09,6.10255e+06,363.035
0.0073,2.29501e-10,1,7.51037e-10,4.76175e-09,6.10255e+06,363.054
0.00732,6.42773e-10,1,2.12956e-09,1.29924e-08,6.10255e+06,363.084
0.00734,1.74791e-09,1,5.86116e-09,3.44505e-08,6.10255e+06,363.133
0.00736,4.61467e-09,1,1.5657e-08,8.87673e-08,6.10255e+06,363.212
0.00738,1.18272e-08,1,4.05911e-08,2.22241e-07,6.10255e+06,363.336
0.0074,2.94228e-08,0.999999,1.02117e-07,5.40581e-07,6.10255e+06,363.529
0.00742,7.10356e-08,0.999998,2.49253e-07,1.27732e-06,6.10255e+06,363.825
0.00744,1.664e-07,0.999996,5.90162e-07,2.93124e-06,6.10255e+06,364.271
0.00746,3.78077e-07,0.999992,1.35508e-06,6.53131e-06,6.10255e+06,364.932
0.00748,8.32861e-07,0.999982,3.01623e-06,1.41251e-05,6.10255e+06,365.896
0.0075,1.77786e-06,0.999962,6.50524e-06,2.9637e-05,6.10255e+06,367.276
0.00752,3.67508e-06,0.999922,1.35866e-05,6.02952e-05,6.10255e+06,369.214
0.00754,7.35098e-06,0.999846,2.74608e-05,0.000118867,6.10255e+06,371.878
0.00756,1.42155e-05,0.999705,5.36725e-05,0.000226913,6.10255e+06,375.461
0.00758,2.65551e-05,0.999453,0.000101369,0.000419155,6.10255e+06,380.166
0.0076,4.78826e-05,0.999018,0.000184886,0.000748761,6.10255e+06,386.194
0.00762,8.32969e-05,0.998298,0.00032551,0.00129299,6.10255e+06,393.719
0.00764,0.000139782,0.997149,0.00055318,0.00215825,6.10255e+06,402.869
0.00766,0.000226364,0.995382,0.000907791,0.00348363,6.10255e+06,413.717
0.00768,0.000354085,0.992764,0.00143986,0.00544203,6.10255e+06,426.268
0.0077,0.000535795,0.989015,0.0022105,0.00823896,6.10255e+06,440.476
0.00772,0.000785837,0.983814,0.00329076,0.0121096,6.10255e+06,456.252
0.00774,0.00111972,0.976804,0.00476084,0.0173152,6.10255e+06,473.483
0.00776,0.00155387,0.967597,0.00670916,0.0241396,6.10255e+06,492.05
0.00778,0.00210551,0.955776,0.00923187,0.0328869,6.10255e+06,511.838
0.0078,0.00279259,0.940896,0.0124324,0.0438795,6.10255e+06,532.735
0.00782,0.00363384,0.922489,0.0164209,0.0574559,6.10255e+06,554.634
0.00784,0.00464868,0.900071,0.0213133,0.0739668,6.10255e+06,577.418
0.00786,0.00522735,0.887203,0.0241357,0.0834335,6.10255e+06,589.099
0.00788,0.0072775,0.841243,0.0342843,0.117195,6.10255e+06,625.046
0.0079,0.00807312,0.823285,0.0382739,0.130368,6.10255e+06,637.238
0.00792,0.0108218,0.760881,0.0522207,0.176077,6.10255e+06,673.945
0.00794,0.0129644,0.711964,0.0632264,0.211846,6.10255e+06,698.065
0.00796,0.0153499,0.657315,0.0755804,0.251755,6.10255e+06,721.4
0.00798,0.0179563,0.597456,0.0891671,0.295421,6.10255e+06,743.478
0.008,0.0207413,0.533382,0.103757,0.342121,6.10255e+06,763.849
0.00802,0.0236406,0.466602,0.118994,0.390764,6.10255e+06,782.151
0.00804,0.0265697,0.399091,0.134409,0.43993,6.10255e+06,798.176
0.00806,0.0294315,0.333123,0.149462,0.487984,6.10255e+06,811.907
0.00808,0.0321282,0.270989,0.163606,0.533277,6.10255e+06,823.511
0.0081,0.0345752,0.214678,0.176372,0.574374,6.10255e+06,833.29
0.00812,0.0367131,0.165598,0.187434,0.610255,6.10255e+06,841.602
0.00814,0.0385138,0.124428,0.196641,0.640418,6.10255e+06,848.789
0.00816,0.0399792,0.0911359,0.204013,0.664872,6.10255e+06,855.127
0.00818,0.0411348,0.0651274,0.209704,0.684034,6.10255e+06,860.809
0.0082,0.0416087,0.0545651,0.21199,0.691836,6.10255e+06,863.443
0.00822,0.042684,0.0310014,0.217004,0.709311,6.10255e+06,870.619
0.00824,0.0429464,0.0253908,0.21817,0.713492,6.10255e+06,872.784
0.00826,0.0435198,0.0135029,0.220574,0.722404,6.10255e+06,878.626
0.00828,0.0437684,0.0086308,0.221508,0.726093,6.10255e+06,881.993
0.0083,0.0439437,0.0054026,0.22209,0.728563,6.10255e+06,884.954
0.00832,0.0440667,0.00331274,0.222435,0.730185,6.10255e+06,887.53
0.00834,0.0441532,0.00199031,0.222626,0.731231,6.10255e+06,889.747
0.00836,0.0442145,0.00117231,0.222719,0.731894,6.10255e+06,891.634
0.00838,0.0442577,0.000690814,0.222752,0.732299,6.10255e+06,893.207
0.0084,0.0442892,0.00040632,0.222755,0.732549,6.10255e+06,894.507
0.00842,0.0443139,0.000223671,0.222744,0.732719,6.10255e+06,895.622
0.00844,0.0443325,0.000121079,0.222724,0.732822,6.10255e+06,896.534
0.00846,0.0443468,6.41594e-05,0.222703,0.732886,6.10255e+06,897.276
0.00848,0.044358,3.32866e-05,0.222683,0.732925,6.10255e+06,897.874
0.0085,0.0443669,1.69082e-05,0.222666,0.732951,6.10255e+06,898.353
0.00852,0.0443739,8.4085e-06,0.222651,0.732967,6.10255e+06,898.733
0.00854,0.0443769,5.88261e-06,0.222644,0.732973,6.10255e+06,898.892
0.00856,0.044384,1.95102e-06,0.222629,0.732985,6.10255e+06,899.267
0.00858,0.0443859,1.33617e-06,0.222625,0.732988,6.10255e+06,899.363
0.0086,0.0443904,4.15679e-07,0.222616,0.732993,6.10255e+06,899.588
0.00862,0.0443926,1.85816e-07,0.222612,0.732995,6.10255e+06,899.694
0.00864,0.0443943,8.13044e-08,0.222609,0.732997,6.10255e+06,899.775
0.00866,0.0443957,3.48213e-08,0.222606,0.732998,6.10255e+06,899.835
0.00868,0.0443967,1.45973e-08,0.222604,0.732999,6.10255e+06,899.881
0.0087,0.0443976,5.98954e-09,0.222603,0.732999,6.10255e+06,899.914
0.00872,0.0443982,2.40552e-09,0.222602,0.733,6.10255e+06,899.939
0.00874,0.0443986,9.45629e-10,0.222602,0.733,6.10255e+06,899.956
0.00876,0.044399,3.63858e-10,0.222601,0.733,6.10255e+06,899.969
0.00878,0.0443993,1.37041e-10,0.222601,0.733,6.10255e+06,899.979
0.0088,0.0443995,5.05217e-11,0.222601,0.733,6.10255e+06,899.985
0.00882,0.0443996,1.82758e-11,0.2226,0.733,6.10255e+06,899.99
0.00884,0.0443997,7.5442e-12,0.2226,0.733,6.10255e+06,899.993
0.00886,0.0443998,2.60104e-12,0.2226,0.733,6.10255e+06,899.995
0.00888,0.0443998,1.51846e-12,0.2226,0.733,6.10255e+06,899.996
0.0089,0.0443999,2.92973e-13,0.2226,0.733,6.10255e+06,899.998
0.00892,0.0443999,1.67544e-13,0.2226,0.733,6.10255e+06,899.998
0.00894,0.0444,3.04526e-14,0.2226,0.733,6.10255e+06,899.999
0.00896,0.0444,9.6021e-15,0.2226,0.733,6.10255e+06,899.999
0.00898,0.0444,3.03551e-15,0.2226,0.733,6.10255e+06,900
0.009,0.0444,9.90102e-16,0.2226,0.733,6.10255e+06,900
0.00902,0.0444,3.39595e-16,0.2226,0.733,6.10255e+06,900
0.00904,0.0444,1.20736e-16,0.2226,0.733,6.10255e+06,900
0.00906,0.0444,4.34412e-17,0.2226,0.733,6.10255e+06,900
0.00908,0.0444,1.55896e-17,0.2226,0.733,6.10255e+06,900
0.0091,0.0444,5.54397e-18,0.2226,0.733,6.10255e+06,900
0.00912,0.0444,1.94866e-18,0.2226,0.733,6.10255e+06,900
0.00914,0.0444,6.76345e-19,0.2226,0.733,6.10255e+06,900
0.00916,0.0444,2.3173e-19,0.2226,0.733,6.10255e+06,900
0.00918,0.0444,7.83691e-20,0.2226,0.733,6.10255e+06,900
0.0092,0.0444,2.61616e-20,0.2226,0.733,6.10255e+06,900
0.00922,0.0444,1.50423e-20,0.2226,0.733,6.10255e+06,900
0.00924,0.0444,2.80454e-21,0.2226,0.733,6.10255e+06,900
0.00926,0.0444,9.0073e-22,0.2226,0.733,6.10255e+06,900
0.00928,0.0444,2.8562e-22,0.2226,0.733,6.10255e+06,900
0.0093,0.0444,8.94281e-23,0.2226,0.733,6.10255e+06,900
0.00932,0.0444,2.7649e-23,0.2226,0.733,6.10255e+06,900
0.00934,0.0444,8.44183e-24,0.2226,0.733,6.10255e+06,900
0.00936,0.0444,2.54551e-24,0.2226,0.733,6.10255e+06,900
0.00938,0.0444,7.581e-25,0.2226,0.733,6.10255e+06,900
0.0094,0.0444,2.23009e-25,0.2226,0.733,6.10255e+06,900
0.00942,0.0444,6.4803e-26,0.2226,0.733,6.10255e+06,900
0.00944,0.0444,1.86027e-26,0.2226,0.733,6.10255e+06,900
0.00946,0.0444,5.27596e-27,0.2226,0.733,6.10255e+06,900
0.00948,0.0444,1.47844e-27,0.2226,0.733,6.10255e+06,900
0.0095,0.0444,4.09368e-28,0.2226,0.733,6.10255e+06,900
0.00952,0.0444,1.12013e-28,0.2226,0.733,6.10255e+06,900
0.00954,0.0444,3.02901e-29,0.2226,0.733,6.10255e+06,900
0.00956,0.0444,1.56822e-29,0.2226,0.733,6.10255e+06,900
0.00958,0.0444,2.13863e-30,0.2226,0.733,6.10255e+06,900
0.0096,0.0444,5.58475e-31,0.2226,0.733,6.10255e+06,900
0.00962,0.0444,1.44173e-31,0.2226,0.733,6.10255e+06,900
0.00964,0.0444,3.67969e-32,0.2226,0.733,6.10255e+06,900
0.00966,0.0444,9.2857e-33,0.2226,0.733,6.10255e+06,900
0.00968,0.0444,2.317e-33,0.2226,0.733,6.10255e+06,900
0.0097,0.0444,5.71713e-34,0.2226,0.733,6.10255e+06,900
0.00972,0.0444,1.39508e-34,0.2226,0.733,6.10255e+06,900
0.00974,0.0444,3.36683e-35,0.2226,0.733,6.10255e+06,900
0.00976,0.0444,8.03654e-36,0.2226,0.733,6.10255e+06,900
0.00978,0.0444,1.89747e-36,0.2226,0.733,6.10255e+06,900
0.0098,0.0444,4.43161e-37,0.2226,0.733,6.10255e+06,900
0.00982,0.0444,1.0239e-37,0.2226,0.733,6.10255e+06,900
0.00984,0.0444,2.3404e-38,0.2226,0.733,6.10255e+06,900
0.00986,0.0444,5.29268e-39,0.2226,0.733,6.10255e+06,900