x,NH3,C7H16,O2,N2,p,T
0,1.67982e-322,1,0,0,6.10255e+06,363
2e-05,0,1,0,0,6.10255e+06,363
4e-05,1.63042e-322,1,1.4822e-322,1.11022e-16,6.10255e+06,363
6e-05,1.58101e-322,1,1.33398e-322,3.33067e-16,6.10255e+06,363
8e-05,3.45846e-323,1,0,2.22045e-16,6.10255e+06,363
0.0001,0,1,1.72923e-322,2.22045e-16,6.10255e+06,363
0.00012,0,1,0,0,6.10255e+06,363
0.00014,0,1,0,0,6.10255e+06,363
0.00016,0,1,1.58101e-322,0,6.10255e+06,363
0.00018,0,1,0,6.66134e-16,6.10255e+06,363
0.0002,1.97626e-323,1,0,4.44089e-16,6.10255e+06,363
0.00022,2.47033e-323,1,0,3.33067e-16,6.10255e+06,363
0.00024,0,1,1.5316e-322,0,6.10255e+06,363
0.00026,1.38338e-322,1,0,2.22045e-16,6.10255e+06,363
0.00028,3.95253e-323,1,1.33398e-322,2.22045e-16,6.10255e+06,363
0.0003,1.28457e-322,1,0,4.44089e-16,6.10255e+06,363
0.00032,1.43279e-322,1,0,3.33067e-16,6.10255e+06,363
0.00034,2.47033e-323,1,0,7.77156e-16,6.10255e+06,363
0.00036,1.33398e-322,1,0,1.22125e-15,6.10255e+06,363
0.00038,1.97626e-323,1,0,1.44329e-15,6.10255e+06,363
0.0004,1.67982e-322,1,0,1.33227e-15,6.10255e+06,363
0.00042,0,1,1.23516e-322,1.22125e-15,6.10255e+06,363
0.00044,0,1,0,1.33227e-15,6.10255e+06,363
0.00046,0,1,1.43279e-322,8.88178e-16,6.10255e+06,363
0.00048,0,1,1.58101e-322,1.11022e-15,6.10255e+06,363
0.0005,0,1,0,1.33227e-15,6.10255e+06,363
0.00052,1.38338e-322,1,0,1.77636e-15,6.10255e+06,363
0.00054,0,1,0,1.55431e-15,6.10255e+06,363
0.00056,1.38338e-322,1,1.38338e-322,1.33227e-15,6.10255e+06,363
0.00058,0,1,0,6.66134e-16,6.10255e+06,363
0.0006,0,1,1.33398e-322,2.22045e-16,6.10255e+06,363
0.00062,0,1,3.70549e-322,6.66134e-16,6.10255e+06,363
0.00064,0,1,6.42285e-322,9.99201e-16,6.10255e+06,363
0.00066,0,1,3.31024e-322,1.22125e-15,6.10255e+06,363
0.00068,1.58101e-322,1,6.62048e-322,8.88178e-16,6.10255e+06,363
0.0007,2.47033e-323,1,3.50787e-322,4.44089e-16,6.10255e+06,363
0.00072,0,1,6.66989e-322,4.44089e-16,6.10255e+06,363
0.00074,0,1,4.5454e-322,3.33067e-16,6.10255e+06,363
0.00076,0,1,6.52167e-322,4.44089e-16,6.10255e+06,363
0.00078,0,1,8.54734e-322,1.11022e-16,6.10255e+06,363
0.0008,0,1,1.16599e-321,2.22045e-16,6.10255e+06,363
0.00082,0,1,1.15117e-321,3.33067e-16,6.10255e+06,363
0.00084,0,1,1.13141e-321,3.33067e-16,6.10255e+06,363
0.00086,0,1,1.35868e-321,4.44089e-16,6.10255e+06,363
0.00088,2.47033e-323,1,1.13141e-321,1.11022e-15,6.10255e+06,363
0.0009,0,1,1.36856e-321,9.99201e-16,6.10255e+06,363
0.00092,0,1,1.99603e-321,7.77156e-16,6.10255e+06,363
0.00094,0,1,2.50491e-321,1.22125e-15,6.10255e+06,363
0.00096,0,1,2.54444e-321,1.44329e-15,6.10255e+06,363
0.00098,0,1,2.49009e-321,1.11022e-15,6.10255e+06,363
0.001,0,1,2.50985e-321,8.88178e-16,6.10255e+06,363
0.00102,0,1,2.55926e-321,3.33067e-16,6.10255e+06,363
0.00104,0,1,2.53456e-321,9.99201e-16,6.10255e+06,363
0.00106,0,1,2.56914e-321,6.66134e-16,6.10255e+06,363
0.00108,9.88131e-324,1,2.65313e-321,1.11022e-15,6.10255e+06,363
0.0011,1.23516e-322,1,2.66301e-321,7.77156e-16,6.10255e+06,363
0.00112,1.28457e-322,1,3.07309e-321,9.99201e-16,6.10255e+06,363
0.00114,0,1,3.16696e-321,7.77156e-16,6.10255e+06,363
0.00116,1.63042e-322,1,3.16696e-321,1.11022e-15,6.10255e+06,363
0.00118,0,1,3.19166e-321,6.66134e-16,6.10255e+06,363
0.0012,0,1,3.23613e-321,7.77156e-16,6.10255e+06,363
0.00122,1.38338e-322,1,3.13732e-321,8.88178e-16,6.10255e+06,363
0.00124,0,1,3.24601e-321,6.66134e-16,6.10255e+06,363
0.00126,0,1,3.17684e-321,7.77156e-16,6.10255e+06,363
0.00128,1.5316e-322,1,3.13732e-321,8.88178e-16,6.10255e+06,363
0.0013,0,1,3.24107e-321,1.11022e-15,6.10255e+06,363
0.00132,0,1,3.11261e-321,1.22125e-15,6.10255e+06,363
0.00134,0,1,3.21143e-321,8.88178e-16,6.10255e+06,363
0.00136,0,1,3.11755e-321,9.99201e-16,6.10255e+06,363
0.00138,0,1,3.23119e-321,1.33227e-15,6.10255e+06,363
0.0014,0,1,3.32506e-321,1.11022e-15,6.10255e+06,363
0.00142,0,1,3.10767e-321,7.77156e-16,6.10255e+06,363
0.00144,0,1,3.1966e-321,3.33067e-16,6.10255e+06,363
0.00146,0,1,3.17684e-321,2.22045e-16,6.10255e+06,363
0.00148,1.4822e-322,1,3.21637e-321,1.11022e-16,6.10255e+06,363
0.0015,1.63042e-322,1,3.19166e-321,4.44089e-16,6.10255e+06,363
0.00152,1.4822e-322,1,3.21143e-321,2.22045e-16,6.10255e+06,363
0.00154,0,1,3.34977e-321,1.11022e-16,6.10255e+06,363
0.00156,0,1,3.22625e-321,0,6.10255e+06,363
0.00158,0,1,3.25095e-321,3.33067e-16,6.10255e+06,363
0.0016,1.17094e-321,1,4.04146e-321,0,6.10255e+06,363
0.00162,1.37004e-320,1,3.94264e-321,2.22045e-16,6.10255e+06,363
0.00164,4.36769e-319,1,6.32898e-321,2.22045e-16,6.10255e+06,363
0.00166,1.5275e-317,1,7.99102e-320,0,6.10255e+06,363
0.00168,5.33516e-316,1,2.7263e-318,4.44089e-16,6.10255e+06,363
0.0017,1.85392e-314,1,9.71743e-317,9.99201e-16,6.10255e+06,363
0.00172,6.40827e-313,1,3.45032e-315,7.77156e-16,6.10255e+06,363
0.00174,2.20336e-311,1,1.21864e-313,6.66134e-16,6.10255e+06,363
0.00176,7.53563e-310,1,4.28134e-312,3.33067e-16,6.10255e+06,363
0.00178,2.56353e-308,1,1.4961e-310,2.22045e-16,6.10255e+06,363
0.0018,8.67428e-307,1,5.20012e-309,3.33067e-16,6.10255e+06,363
0.00182,2.91944e-305,1,1.79776e-307,6.66134e-16,6.10255e+06,363
0.00184,9.77309e-304,1,6.18172e-306,5.55112e-16,6.10255e+06,363
0.00186,3.25404e-302,1,2.11417e-304,9.99201e-16,6.10255e+06,363
0.00188,1.07762e-300,1,7.19145e-303,6.66134e-16,6.10255e+06,363
0.0019,3.5494e-299,1,2.43295e-301,8.88178e-16,6.10255e+06,363
0.00192,1.16274e-297,1,8.18622e-300,1.11022e-15,6.10255e+06,363
0.00194,3.78831e-296,1,2.73943e-298,6.66134e-16,6.10255e+06,363
0.00196,1.22753e-294,1,9.11715e-297,8.88178e-16,6.10255e+06,363
0.00198,3.95587e-293,1,3.01767e-295,5.55112e-16,6.10255e+06,363
0.002,1.26784e-291,1,9.93325e-294,1.11022e-15,6.10255e+06,363
0.00202,4.04105e-290,1,3.25171e-292,6.66134e-16,6.10255e+06,363
0.00204,1.28093e-288,1,1.05859e-290,5.55112e-16,6.10255e+06,363
0.00206,7.19676e-288,1,6.0274e-290,8.88178e-16,6.10255e+06,363
0.00208,1.26578e-285,1,1.10335e-287,6.66134e-16,6.10255e+06,363
0.0021,3.94593e-284,1,3.5324e-286,4.44089e-16,6.10255e+06,363
0.00212,1.22325e-282,1,1.12459e-284,1.11022e-16,6.10255e+06,363
0.00214,3.77091e-281,1,3.56024e-283,8.88178e-16,6.10255e+06,363
0.00216,1.15595e-279,1,1.12077e-281,6.66134e-16,6.10255e+06,363
0.00218,3.52356e-278,1,3.50835e-280,1.33227e-15,6.10255e+06,363
0.0022,1.068e-276,1,1.09201e-278,1.66533e-15,6.10255e+06,363
0.00222,3.21886e-275,1,3.37975e-277,1.44329e-15,6.10255e+06,363
0.00224,9.64638e-274,1,1.04008e-275,1.44329e-15,6.10255e+06,363
0.00226,2.87443e-272,1,3.1825e-274,1.66533e-15,6.10255e+06,363
0.00228,8.51641e-271,1,9.68236e-273,7.77156e-16,6.10255e+06,363
0.0023,2.50884e-269,1,2.92885e-271,7.77156e-16,6.10255e+06,363
0.00232,7.34839e-268,1,8.80868e-270,4.44089e-16,6.10255e+06,363
0.00234,2.13997e-266,1,2.63399e-268,3.33067e-16,6.10255e+06,363
0.00236,6.19604e-265,1,7.83068e-267,2.22045e-16,6.10255e+06,363
0.00238,1.78362e-263,1,2.31451e-265,5.55112e-16,6.10255e+06,363
0.0024,5.10462e-262,1,6.80123e-264,4.44089e-16,6.10255e+06,363
0.00242,1.45242e-260,1,1.9869e-262,3.33067e-16,6.10255e+06,363
0.00244,4.10848e-259,1,5.77054e-261,6.66134e-16,6.10255e+06,363
0.00246,1.15538e-257,1,1.66611e-259,9.99201e-16,6.10255e+06,363
0.00248,3.23005e-256,1,4.78219e-258,5.55112e-16,6.10255e+06,363
0.0025,8.97703e-255,1,1.36452e-256,5.55112e-16,6.10255e+06,363
0.00252,2.4802e-253,1,3.8704e-255,7.77156e-16,6.10255e+06,363
0.00254,6.81179e-252,1,1.09131e-253,7.77156e-16,6.10255e+06,363
0.00256,1.85973e-250,1,3.05875e-252,1.11022e-16,6.10255e+06,363
0.00258,5.04715e-249,1,8.52199e-251,0,6.10255e+06,363
0.0026,1.36157e-247,1,2.36009e-249,1.11022e-16,6.10255e+06,363
0.00262,3.65112e-246,1,6.49682e-248,2.22045e-16,6.10255e+06,363
0.00264,9.73185e-245,1,1.77765e-246,5.55112e-16,6.10255e+06,363
0.00266,2.57833e-243,1,4.83461e-245,4.44089e-16,6.10255e+06,363
0.00268,6.78969e-242,1,1.30688e-243,0,6.10255e+06,363
0.0027,1.77713e-240,1,3.51124e-242,2.22045e-16,6.10255e+06,363
0.00272,4.62319e-239,1,9.37624e-241,3.33067e-16,6.10255e+06,363
0.00274,1.19538e-237,1,2.48847e-239,3.33067e-16,6.10255e+06,363
0.00276,3.07188e-236,1,6.5639e-238,1.11022e-16,6.10255e+06,363
0.00278,7.84566e-235,1,1.72072e-236,1.11022e-16,6.10255e+06,363
0.0028,1.99147e-233,1,4.48301e-235,2.22045e-16,6.10255e+06,363
0.00282,5.02373e-232,1,1.16073e-233,4.44089e-16,6.10255e+06,363
0.00284,1.25945e-230,1,2.98665e-232,3.33067e-16,6.10255e+06,363
0.00286,3.13783e-229,1,7.63701e-231,4.44089e-16,6.10255e+06,363
0.00288,7.76895e-228,1,1.94061e-229,7.77156e-16,6.10255e+06,363
0.0029,1.91149e-226,1,4.90029e-228,5.55112e-16,6.10255e+06,363
0.00292,4.67356e-225,1,1.2296e-226,6.66134e-16,6.10255e+06,363
0.00294,1.13549e-223,1,3.06589e-225,4.44089e-16,6.10255e+06,363
0.00296,2.74137e-222,1,7.59612e-224,6.66134e-16,6.10255e+06,363
0.00298,6.57651e-221,1,1.87007e-222,1.44329e-15,6.10255e+06,363
0.003,1.56767e-219,1,4.57457e-221,1.44329e-15,6.10255e+06,363
0.00302,3.71311e-218,1,1.11188e-219,1.55431e-15,6.10255e+06,363
0.00304,8.73849e-217,1,2.68516e-218,1.11022e-15,6.10255e+06,363
0.00306,2.04334e-215,1,6.44287e-217,9.99201e-16,6.10255e+06,363
0.00308,4.74725e-214,1,1.53595e-215,5.55112e-16,6.10255e+06,363
0.0031,1.0958e-212,1,3.63792e-214,4.44089e-16,6.10255e+06,363
0.00312,2.51304e-211,1,8.56052e-213,6.66134e-16,6.10255e+06,363
0.00314,5.7258e-210,1,2.00128e-211,8.88178e-16,6.10255e+06,363
0.00316,1.29609e-208,1,4.64798e-210,8.88178e-16,6.10255e+06,363
0.00318,2.91462e-207,1,1.07242e-208,6.66134e-16,6.10255e+06,363
0.0032,6.51138e-206,1,2.45808e-207,7.77156e-16,6.10255e+06,363
0.00322,1.44509e-204,1,5.59695e-206,3.33067e-16,6.10255e+06,363
0.00324,3.18596e-203,1,1.26596e-204,4.44089e-16,6.10255e+06,363
0.00326,6.97748e-202,1,2.8444e-203,6.66134e-16,6.10255e+06,363
0.00328,1.51796e-200,1,6.34829e-202,7.77156e-16,6.10255e+06,363
0.0033,3.28032e-199,1,1.40736e-200,8.88178e-16,6.10255e+06,363
0.00332,7.04134e-198,1,3.09907e-199,7.77156e-16,6.10255e+06,363
0.00334,1.50131e-196,1,6.77828e-198,4.44089e-16,6.10255e+06,363
0.00336,3.17942e-195,1,1.47253e-196,1.11022e-15,6.10255e+06,363
0.00338,6.68777e-194,1,3.17725e-195,8.88178e-16,6.10255e+06,363
0.0034,1.3972e-192,1,6.80885e-194,6.66134e-16,6.10255e+06,363
0.00342,2.89915e-191,1,1.44918e-192,4.44089e-16,6.10255e+06,363
0.00344,5.97458e-190,1,3.06325e-191,3.33067e-16,6.10255e+06,363
0.00346,1.22281e-188,1,6.43054e-190,6.66134e-16,6.10255e+06,363
0.00348,2.48549e-187,1,1.34062e-188,3.33067e-16,6.10255e+06,363
0.0035,5.0172e-186,1,2.77555e-187,4.44089e-16,6.10255e+06,363
0.00352,1.00576e-184,1,5.70642e-186,7.77156e-16,6.10255e+06,363
0.00354,2.00215e-183,1,1.16504e-184,6.66134e-16,6.10255e+06,363
0.00356,3.95789e-182,1,2.36194e-183,5.55112e-16,6.10255e+06,363
0.00358,7.76929e-181,1,4.75487e-182,5.55112e-16,6.10255e+06,363
0.0036,1.5144e-179,1,9.50471e-181,6.66134e-16,6.10255e+06,363
0.00362,2.93109e-178,1,1.8865e-179,4.44089e-16,6.10255e+06,363
0.00364,5.63297e-177,1,3.71779e-178,4.44089e-16,6.10255e+06,363
0.00366,1.07487e-175,1,7.27462e-177,5.55112e-16,6.10255e+06,363
0.00368,2.03643e-174,1,1.41326e-175,6.66134e-16,6.10255e+06,363
0.0037,3.83062e-173,1,2.72589e-174,3.33067e-16,6.10255e+06,363
0.00372,7.15394e-172,1,5.21985e-173,4.44089e-16,6.10255e+06,363
0.00374,1.32643e-170,1,9.92341e-172,3.33067e-16,6.10255e+06,363
0.00376,2.44162e-169,1,1.87286e-170,6.66134e-16,6.10255e+06,363
0.00378,4.46182e-168,1,3.50897e-169,5.55112e-16,6.10255e+06,363
0.0038,8.09424e-167,1,6.52637e-168,9.99201e-16,6.10255e+06,363
0.00382,1.45767e-165,1,1.20495e-166,6.66134e-16,6.10255e+06,363
0.00384,2.60584e-164,1,2.20833e-165,6.66134e-16,6.10255e+06,363
0.00386,4.62414e-163,1,4.01737e-164,3.33067e-16,6.10255e+06,363
0.00388,8.14513e-162,1,7.2542e-163,2.22045e-16,6.10255e+06,363
0.0039,1.42409e-160,1,1.30016e-161,6.66134e-16,6.10255e+06,363
0.00392,2.47135e-159,1,2.31287e-160,1.11022e-16,6.10255e+06,363
0.00394,4.25676e-158,1,4.08358e-159,5.55112e-16,6.10255e+06,363
0.00396,7.27711e-157,1,7.15571e-158,2.22045e-16,6.10255e+06,363
0.00398,1.2347e-155,1,1.24444e-156,3.33067e-16,6.10255e+06,363
0.004,2.0791e-154,1,2.14781e-155,3.33067e-16,6.10255e+06,363
0.00402,3.47445e-153,1,3.67876e-154,6.66134e-16,6.10255e+06,363
0.00404,5.76213e-152,1,6.25288e-153,1.11022e-16,6.10255e+06,363
0.00406,9.48315e-151,1,1.05467e-151,3.33067e-16,6.10255e+06,363
0.00408,1.54875e-149,1,1.76524e-150,5.55112e-16,6.10255e+06,363
0.0041,2.50992e-148,1,2.93173e-149,6.66134e-16,6.10255e+06,363
0.00412,1.00748e-147,1,1.19129e-148,5.55112e-16,6.10255e+06,363
0.00414,6.44025e-146,1,7.89975e-147,3.33067e-16,6.10255e+06,363
0.00416,1.01963e-144,1,1.28161e-145,2.22045e-16,6.10255e+06,363
0.00418,1.60169e-143,1,2.06292e-144,3.33067e-16,6.10255e+06,363
0.0042,2.4963e-142,1,3.29439e-143,1.11022e-15,6.10255e+06,363
0.00422,3.85995e-141,1,5.21941e-142,1.33227e-15,6.10255e+06,363
0.00424,5.92135e-140,1,8.20369e-141,1.55431e-15,6.10255e+06,363
0.00426,9.01158e-139,1,1.27916e-139,1.44329e-15,6.10255e+06,363
0.00428,1.36053e-137,1,1.97857e-138,1.77636e-15,6.10255e+06,363
0.0043,2.03765e-136,1,3.03583e-137,1.9984e-15,6.10255e+06,363
0.00432,3.02725e-135,1,4.6205e-136,1.33227e-15,6.10255e+06,363
0.00434,4.46121e-134,1,6.97542e-135,7.77156e-16,6.10255e+06,363
0.00436,6.5212e-133,1,1.0445e-133,2.22045e-16,6.10255e+06,363
0.00438,9.45494e-132,1,1.55127e-132,7.77156e-16,6.10255e+06,363
0.0044,1.35967e-130,1,2.28504e-131,4.44089e-16,6.10255e+06,363
0.00442,1.93924e-129,1,3.3382e-130,1.55431e-15,6.10255e+06,363
0.00444,2.74312e-128,1,4.83646e-129,1.11022e-15,6.10255e+06,363
0.00446,1.02849e-127,1,1.83519e-128,1.22125e-15,6.10255e+06,363
0.00448,5.35364e-126,1,9.90129e-127,6.66134e-16,6.10255e+06,363
0.0045,7.386e-125,1,1.39897e-125,3.33067e-16,6.10255e+06,363
0.00452,1.01047e-123,1,1.96003e-124,6.66134e-16,6.10255e+06,363
0.00454,1.37079e-122,1,2.72295e-123,5.55112e-16,6.10255e+06,363
0.00456,1.84393e-121,1,3.75077e-122,5.55112e-16,6.10255e+06,363
0.00458,2.45935e-120,1,5.1226e-121,4.44089e-16,6.10255e+06,363
0.0046,3.25228e-119,1,6.93642e-120,9.99201e-16,6.10255e+06,363
0.00462,4.26413e-118,1,9.3119e-119,8.88178e-16,6.10255e+06,363
0.00464,5.54281e-117,1,1.23932e-117,1.11022e-15,6.10255e+06,363
0.00466,7.14285e-116,1,1.63513e-116,6.66134e-16,6.10255e+06,363
0.00468,9.12514e-115,1,2.13861e-115,1.11022e-16,6.10255e+06,363
0.0047,1.15562e-113,1,2.7727e-114,3.33067e-16,6.10255e+06,363
0.00472,1.45073e-112,1,3.56327e-113,3.33067e-16,6.10255e+06,363
0.00474,1.80523e-111,1,4.53894e-112,8.88178e-16,6.10255e+06,363
0.00476,2.22658e-110,1,5.73063e-111,5.55112e-16,6.10255e+06,363
0.00478,2.72198e-109,1,7.17091e-110,7.77156e-16,6.10255e+06,363
0.0048,3.29805e-108,1,8.89311e-109,5.55112e-16,6.10255e+06,363
0.00482,3.96039e-107,1,1.09301e-107,1.22125e-15,6.10255e+06,363
0.00484,4.71312e-106,1,1.33126e-106,3.33067e-16,6.10255e+06,363
0.00486,5.55842e-105,1,1.60679e-105,1.22125e-15,6.10255e+06,363
0.00488,6.49605e-104,1,1.92173e-104,8.88178e-16,6.10255e+06,363
0.0049,7.52289e-103,1,2.27742e-103,6.66134e-16,6.10255e+06,363
0.00492,8.63254e-102,1,2.6742e-102,7.77156e-16,6.10255e+06,363
0.00494,9.81507e-101,1,3.11119e-101,2.22045e-16,6.10255e+06,363
0.00496,1.10568e-99,1,3.58609e-100,0,6.10255e+06,363
0.00498,1.23405e-98,1,4.09507e-99,3.33067e-16,6.10255e+06,363
0.005,1.36451e-97,1,4.63262e-98,1.11022e-16,6.10255e+06,363
0.00502,1.49468e-96,1,5.19156e-97,0,6.10255e+06,363
0.00504,1.62191e-95,1,5.7631e-96,0,6.10255e+06,363
0.00506,1.74338e-94,1,6.33698e-95,1.11022e-16,6.10255e+06,363
0.00508,1.85621e-93,1,6.9017e-94,1.11022e-16,6.10255e+06,363
0.0051,1.95754e-92,1,7.44488e-93,0,6.10255e+06,363
0.00512,6.33415e-92,1,2.43634e-92,1.11022e-16,6.10255e+06,363
0.00514,2.11515e-90,1,8.4152e-91,0,6.10255e+06,363
0.00516,2.16696e-89,1,8.81717e-90,5.55112e-16,6.10255e+06,363
0.00518,2.1985e-88,1,9.14831e-89,0,6.10255e+06,363
0.0052,2.20877e-87,1,9.39893e-88,1.11022e-16,6.10255e+06,363
0.00522,2.19737e-86,1,9.56139e-87,1.11022e-16,6.10255e+06,363
0.00524,2.16451e-85,1,9.63048e-86,3.33067e-16,6.10255e+06,363
0.00526,2.11107e-84,1,9.60366e-85,5.55112e-16,6.10255e+06,363
0.00528,2.03848e-83,1,9.48128e-84,0,6.10255e+06,363
0.0053,1.94874e-82,1,9.26652e-83,2.22045e-16,6.10255e+06,363
0.00532,1.84426e-81,1,8.96527e-82,2.22045e-16,6.10255e+06,363
0.00534,1.72778e-80,1,8.5859e-81,5.55112e-16,6.10255e+06,363
0.00536,1.60226e-79,1,8.13881e-80,8.88178e-16,6.10255e+06,363
0.00538,1.47072e-78,1,7.63601e-79,4.44089e-16,6.10255e+06,363
0.0054,1.33616e-77,1,7.09055e-78,8.88178e-16,6.10255e+06,363
0.00542,1.20142e-76,1,6.51595e-77,4.44089e-16,6.10255e+06,363
0.00544,1.0691e-75,1,5.92567e-76,1.11022e-16,6.10255e+06,363
0.00546,9.41467e-75,1,5.33256e-75,2.22045e-16,6.10255e+06,363
0.00548,8.2041e-74,1,4.74841e-74,0,6.10255e+06,363
0.0055,7.07413e-73,1,4.18361e-73,3.33067e-16,6.10255e+06,363
0.00552,6.03541e-72,1,3.64687e-72,1.11022e-15,6.10255e+06,363
0.00554,5.09458e-71,1,3.14509e-71,8.88178e-16,6.10255e+06,363
0.00556,4.25454e-70,1,2.68325e-70,1.66533e-15,6.10255e+06,363
0.00558,3.51493e-69,1,2.26456e-69,1.55431e-15,6.10255e+06,363
0.0056,2.87259e-68,1,1.89048e-68,1.9984e-15,6.10255e+06,363
0.00562,2.32219e-67,1,1.56099e-67,2.10942e-15,6.10255e+06,363
0.00564,1.8568e-66,1,1.27481e-66,5.55112e-16,6.10255e+06,363
0.00566,1.46842e-65,1,1.02963e-65,0,6.10255e+06,363
0.00568,1.14848e-64,1,8.22387e-65,0,6.10255e+06,363
0.0057,8.88301e-64,1,6.49542e-64,0,6.10255e+06,363
0.00572,6.79411e-63,1,5.07278e-63,0,6.10255e+06,363
0.00574,5.13823e-62,1,3.9171e-62,0,6.10255e+06,363
0.00576,3.84215e-61,1,2.99043e-61,0,6.10255e+06,363
0.00578,2.84045e-60,1,2.25697e-60,0,6.10255e+06,363
0.0058,2.07598e-59,1,1.68388e-59,0,6.10255e+06,363
0.00582,1.49987e-58,1,1.24182e-58,0,6.10255e+06,363
0.00584,1.07114e-57,1,9.05193e-58,0,6.10255e+06,363
0.00586,7.56093e-57,1,6.52118e-57,0,6.10255e+06,363
0.00588,5.27481e-56,1,4.64284e-56,0,6.10255e+06,363
0.0059,3.63673e-55,1,3.2665e-55,0,6.10255e+06,363
0.00592,2.47775e-54,1,2.27086e-54,6.66134e-16,6.10255e+06,363
0.00594,1.66807e-53,1,1.55983e-53,7.77156e-16,6.10255e+06,363
0.00596,1.10956e-52,1,1.05854e-52,4.44089e-16,6.10255e+06,363
0.00598,7.29174e-52,1,7.09663e-52,7.77156e-16,6.10255e+06,363
0.006,4.73398e-51,1,4.69976e-51,7.77156e-16,6.10255e+06,363
0.00602,3.03601e-50,1,3.0743e-50,7.77156e-16,6.10255e+06,363
0.00604,1.92322e-49,1,1.98623e-49,5.55112e-16,6.10255e+06,363
0.00606,1.20328e-48,1,1.26734e-48,1.11022e-15,6.10255e+06,363
0.00608,7.43515e-48,1,7.98552e-48,1.22125e-15,6.10255e+06,363
0.0061,4.5369e-47,1,4.96848e-47,1.11022e-16,6.10255e+06,363
0.00612,2.73364e-46,1,3.05226e-46,8.88178e-16,6.10255e+06,363
0.00614,1.62631e-45,1,1.85123e-45,1.22125e-15,6.10255e+06,363
0.00616,9.55238e-45,1,1.10843e-44,6.66134e-16,6.10255e+06,363
0.00618,5.53896e-44,1,6.55125e-44,3.33067e-16,6.10255e+06,363
0.0062,3.17044e-43,1,3.82188e-43,0,6.10255e+06,363
0.00622,1.79122e-42,1,2.20054e-42,0,6.10255e+06,363
0.00624,9.98804e-42,1,1.25038e-41,0,6.10255e+06,363
0.00626,5.49638e-41,1,7.01105e-41,0,6.10255e+06,363
0.00628,2.98471e-40,1,3.87891e-40,0,6.10255e+06,363
0.0063,1.59926e-39,1,2.11732e-39,0,6.10255e+06,363
0.00632,8.45447e-39,1,1.14018e-38,0,6.10255e+06,363
0.00634,4.40929e-38,1,6.05663e-38,0,6.10255e+06,363
0.00636,2.26844e-37,1,3.17338e-37,0,6.10255e+06,363
0.00638,1.15113e-36,1,1.63986e-36,0,6.10255e+06,363
0.0064,5.76126e-36,1,8.35692e-36,0,6.10255e+06,363
0.00642,2.84363e-35,1,4.19953e-35,0,6.10255e+06,363
0.00644,1.38405e-34,1,2.08082e-34,0,6.10255e+06,363
0.00646,6.64227e-34,1,1.0165e-33,0,6.10255e+06,363
0.00648,3.14291e-33,1,4.89535e-33,0,6.10255e+06,363
0.0065,1.4661e-32,1,2.32397e-32,0,6.10255e+06,363
0.00652,6.74187e-32,1,1.08746e-31,0,6.10255e+06,363
0.00654,3.05596e-31,1,5.0153e-31,0,6.10255e+06,363
0.00656,1.36532e-30,1,2.27958e-30,0,6.10255e+06,363
0.00658,6.01194e-30,1,1.02107e-29,0,6.10255e+06,363
0.0066,2.60887e-29,1,4.50681e-29,0,6.10255e+06,363
0.00662,1.11562e-28,1,1.96001e-28,0,6.10255e+06,363
0.00664,4.70075e-28,1,8.39825e-28,0,6.10255e+06,363
0.00666,1.95145e-27,1,3.54495e-27,0,6.10255e+06,363
0.00668,7.98054e-27,1,1.4739e-26,2.22045e-16,6.10255e+06,363
0.0067,3.21455e-26,1,6.03514e-26,8.88178e-16,6.10255e+06,363
0.00672,1.27507e-25,1,2.43324e-25,6.66134e-16,6.10255e+06,363
0.00674,4.97945e-25,1,9.6574e-25,7.77156e-16,6.10255e+06,363
0.00676,1.91403e-24,1,3.77223e-24,1.33227e-15,6.10255e+06,363
0.00678,7.23969e-24,1,1.44971e-23,3.33067e-16,6.10255e+06,363
0.0068,2.69388e-23,1,5.48005e-23,3.33067e-16,6.10255e+06,363
0.00682,9.85851e-23,1,2.037e-22,2.22045e-16,6.10255e+06,363
0.00684,3.54742e-22,1,7.44381e-22,0,6.10255e+06,363
0.00686,1.25486e-21,1,2.67363e-21,0,6.10255e+06,363
0.00688,4.36311e-21,1,9.43727e-21,5.55112e-16,6.10255e+06,363
0.0069,1.49106e-20,1,3.27348e-20,2.22045e-16,6.10255e+06,363
0.00692,5.00881e-20,1,1.11593e-19,5.55112e-16,6.10255e+06,363
0.00694,1.65435e-19,1,3.73973e-19,0,6.10255e+06,363
0.00696,5.37397e-19,1,1.23242e-18,3.33067e-16,6.10255e+06,363
0.00698,1.71701e-18,1,3.99417e-18,1.11022e-16,6.10255e+06,363
0.007,5.39486e-18,1,1.27282e-17,5.55112e-16,6.10255e+06,363
0.00702,1.66607e-17,1,3.98603e-17,5.55112e-16,6.10255e+06,363
0.00704,5.07434e-17,1,1.23099e-16,0,6.10255e+06,363
0.00706,1.52492e-16,1,3.75099e-16,1.22125e-15,6.10255e+06,363
0.00708,4.79016e-16,1,1.19651e-15,8.54872e-15,6.10255e+06,363
0.0071,1.59153e-15,1,4.04507e-15,3.69704e-14,6.10255e+06,363
0.00712,5.59281e-15,1,1.44959e-14,1.33227e-13,6.10255e+06,363
0.00714,1.99632e-14,1,5.28186e-14,4.72178e-13,6.10255e+06,363
0.00716,7.02803e-14,1,1.8982e-13,1.62215e-12,6.10255e+06,363.001
0.00718,2.41379e-13,1,6.65284e-13,5.43476e-12,6.10255e+06,363.001
0.0072,8.05843e-13,1,2.26542e-12,1.76924e-11,6.10255e+06,363.002
0.00722,2.61346e-12,1,7.49006e-12,5.5982e-11,6.10255e+06,363.004
0.00724,8.2326e-12,1,2.40414e-11,1.72152e-10,6.10255e+06,363.008
0.00726,2.51875e-11,1,7.49098e-11,5.14493e-10,6.10255e+06,363.014
0.00728,7.48398e-11,1,2.26568e-10,1.49425e-09,6.10255e+06,363.024
0.0073,2.15954e-10,1,6.65151e-10,4.21727e-09,6.10255e+06,363.041
0.00732,6.05127e-10,1,1.89531e-09,1.1566e-08,6.10255e+06,363.069
0.00734,1.64651e-09,1,5.24149e-09,3.08218e-08,6.10255e+06,363.115
0.00736,4.34991e-09,1,1.40675e-08,7.98046e-08,6.10255e+06,363.19
0.00738,1.11573e-08,1,3.66377e-08,2.00751e-07,6.10255e+06,363.308
0.0074,2.77806e-08,0.999999,9.25856e-08,4.90572e-07,6.10255e+06,363.492
0.00742,6.71365e-08,0.999999,2.26985e-07,1.1644e-06,6.10255e+06,363.775
0.00744,1.57438e-07,0.999997,5.39761e-07,2.68392e-06,6.10255e+06,364.204
0.00746,3.58144e-07,0.999992,1.24463e-06,6.00612e-06,6.10255e+06,364.841
0.00748,7.89999e-07,0.999983,2.78198e-06,1.30445e-05,6.10255e+06,365.772
0.0075,1.68883e-06,0.999965,6.02486e-06,2.74841e-05,6.10255e+06,367.107
0.00752,3.49667e-06,0.999928,1.26349e-05,5.61459e-05,6.10255e+06,368.986
0.00754,7.00645e-06,0.999856,2.56412e-05,0.000111138,6.10255e+06,371.576
0.00756,1.35753e-05,0.999723,5.03188e-05,0.000213015,6.10255e+06,375.068
0.00758,2.54116e-05,0.999484,9.5417e-05,0.000395052,6.10255e+06,379.665
0.0076,4.59216e-05,0.999071,0.000174721,0.000708482,6.10255e+06,385.568
0.00762,8.00699e-05,0.998383,0.000308817,0.00122815,6.10255e+06,392.955
0.00764,0.000134685,0.997281,0.00052681,0.00205772,6.10255e+06,401.961
0.00766,0.000218629,0.99558,0.000867688,0.00333332,6.10255e+06,412.661
0.00768,0.000342785,0.993051,0.00138105,0.00522502,6.10255e+06,425.069
0.0077,0.000519861,0.989417,0.00212714,0.00793576,6.10255e+06,439.141
0.00772,0.000764082,0.984361,0.00317624,0.0116985,6.10255e+06,454.79
0.00774,0.00109086,0.977529,0.00460785,0.0167726,6.10255e+06,471.905
0.00776,0.00151653,0.968533,0.00650981,0.0234404,6.10255e+06,490.368
0.00778,0.00205823,0.95696,0.00897768,0.0320046,6.10255e+06,510.061
0.0078,0.00273385,0.942365,0.0121144,0.0427864,6.10255e+06,530.873
0.00782,0.00356206,0.924285,0.0160296,0.0561236,6.10255e+06,552.696
0.00784,0.00456221,0.902233,0.020839,0.0723662,6.10255e+06,575.414
0.00786,0.00513293,0.889563,0.0236162,0.0816879,6.10255e+06,587.068
0.00788,0.00715687,0.844253,0.0336152,0.114975,6.10255e+06,622.956
0.0079,0.00794305,0.826528,0.0375507,0.127978,6.10255e+06,635.139
0.00792,0.0106622,0.764855,0.051327,0.173155,6.10255e+06,671.861
0.00794,0.0127848,0.716428,0.0622174,0.20857,6.10255e+06,696.033
0.00796,0.0151516,0.66224,0.0744623,0.248146,6.10255e+06,719.458
0.00798,0.0177419,0.602776,0.0879548,0.291527,6.10255e+06,741.666
0.008,0.0205154,0.538989,0.102475,0.33802,6.10255e+06,762.202
0.00802,0.0234093,0.472347,0.117679,0.386565,6.10255e+06,780.693
0.00804,0.0263407,0.404791,0.133104,0.435764,6.10255e+06,796.917
0.00806,0.029213,0.33858,0.148214,0.483993,6.10255e+06,810.84
0.00808,0.0319277,0.27602,0.162459,0.529593,6.10255e+06,822.614
0.0081,0.0343986,0.219139,0.17536,0.571102,6.10255e+06,832.534
0.00812,0.0365638,0.169402,0.186576,0.607457,6.10255e+06,840.956
0.00814,0.0383925,0.127552,0.195942,0.638113,6.10255e+06,848.226
0.00816,0.0398844,0.0936113,0.203466,0.663039,6.10255e+06,854.627
0.00818,0.0410635,0.0670243,0.20929,0.682623,6.10255e+06,860.36
0.0082,0.0415477,0.0562062,0.211634,0.690612,6.10255e+06,863.016
0.00822,0.0426479,0.0320186,0.216789,0.708544,6.10255e+06,870.252
0.00824,0.0429166,0.0262462,0.217992,0.712845,6.10255e+06,872.435
0.00826,0.0435041,0.0139923,0.220476,0.722027,6.10255e+06,878.332
0.00828,0.0437589,0.00895792,0.221446,0.725837,6.10255e+06,881.734
0.0083,0.0439383,0.00561614,0.222053,0.728393,6.10255e+06,884.728
0.00832,0.044064,0.00344895,0.222414,0.730074,6.10255e+06,887.335
0.00834,0.0441522,0.00207522,0.222614,0.731159,6.10255e+06,889.58
0.00836,0.0442145,0.00122398,0.222713,0.731848,6.10255e+06,891.494
0.00838,0.0442584,0.000718522,0.222751,0.732272,6.10255e+06,893.093
0.0084,0.0442899,0.000425647,0.222754,0.73253,6.10255e+06,894.412
0.00842,0.0443146,0.000235661,0.222744,0.732705,6.10255e+06,895.539
0.00844,0.0443332,0.000127666,0.222726,0.732813,6.10255e+06,896.466
0.00846,0.0443475,6.77508e-05,0.222705,0.73288,6.10255e+06,897.221
0.00848,0.0443586,3.52062e-05,0.222685,0.732922,6.10255e+06,897.83
0.0085,0.0443674,1.79123e-05,0.222667,0.732948,6.10255e+06,898.318
0.00852,0.0443743,8.92243e-06,0.222652,0.732965,6.10255e+06,898.706
0.00854,0.0443773,6.24729e-06,0.222645,0.732971,6.10255e+06,898.868
0.00856,0.0443843,2.0771e-06,0.22263,0.732984,6.10255e+06,899.25
0.00858,0.0443861,1.4237e-06,0.222626,0.732987,6.10255e+06,899.349
0.0086,0.0443905,4.44006e-07,0.222616,0.732993,6.10255e+06,899.578
0.00862,0.0443927,1.98806e-07,0.222612,0.732995,6.10255e+06,899.687
0.00864,0.0443944,8.71308e-08,0.222609,0.732997,6.10255e+06,899.769
0.00866,0.0443958,3.73775e-08,0.222606,0.732998,6.10255e+06,899.831
0.00868,0.0443968,1.56942e-08,0.222605,0.732999,6.10255e+06,899.878
0.0087,0.0443976,6.44993e-09,0.222603,0.732999,6.10255e+06,899.912
0.00872,0.0443982,2.59452e-09,0.222602,0.733,6.10255e+06,899.937
0.00874,0.0443987,1.02151e-09,0.222602,0.733,6.10255e+06,899.955
0.00876,0.044399,3.93652e-10,0.222601,0.733,6.10255e+06,899.968
0.00878,0.0443993,1.48475e-10,0.222601,0.733,6.10255e+06,899.978
0.0088,0.0443995,5.48064e-11,0.222601,0.733,6.10255e+06,899.985
0.00882,0.0443996,1.97958e-11,0.2226,0.733,6.10255e+06,899.989
0.00884,0.0443997,7.2588e-12,0.2226,0.733,6.10255e+06,899.993
0.00886,0.0443998,2.87966e-12,0.2226,0.733,6.10255e+06,899.995
0.00888,0.0443998,1.68753e-12,0.2226,0.733,6.10255e+06,899.996
0.0089,0.0443999,3.26276e-13,0.2226,0.733,6.10255e+06,899.998
0.00892,0.0443999,1.86551e-13,0.2226,0.733,6.10255e+06,899.998
0.00894,0.0444,3.3875e-14,0.2226,0.733,6.10255e+06,899.999
0.00896,0.0444,1.06651e-14,0.2226,0.733,6.10255e+06,899.999
0.00898,0.0444,3.35996e-15,0.2226,0.733,6.10255e+06,900
0.009,0.0444,1.08937e-15,0.2226,0.733,6.10255e+06,900
0.00902,0.0444,3.71395e-16,0.2226,0.733,6.10255e+06,900
0.00904,0.0444,1.31556e-16,0.2226,0.733,6.10255e+06,900
0.00906,0.0444,4.72481e-17,0.2226,0.733,6.10255e+06,900
0.00908,0.0444,1.69401e-17,0.2226,0.733,6.10255e+06,900
0.0091,0.0444,6.02086e-18,0.2226,0.733,6.10255e+06,900
0.00912,0.0444,2.11541e-18,0.2226,0.733,6.10255e+06,900
0.00914,0.0444,7.33961e-19,0.2226,0.733,6.10255e+06,900
0.00916,0.0444,2.51388e-19,0.2226,0.733,6.10255e+06,900
0.00918,0.0444,8.49915e-20,0.2226,0.733,6.10255e+06,900
0.0092,0.0444,2.83642e-20,0.2226,0.733,6.10255e+06,900
0.00922,0.0444,1.63065e-20,0.2226,0.733,6.10255e+06,900
0.00924,0.0444,3.03914e-21,0.2226,0.733,6.10255e+06,900
0.00926,0.0444,9.75883e-22,0.2226,0.733,6.10255e+06,900
0.00928,0.0444,3.09402e-22,0.2226,0.733,6.10255e+06,900
0.0093,0.0444,9.6864e-23,0.2226,0.733,6.10255e+06,900
0.00932,0.0444,2.99465e-23,0.2226,0.733,6.10255e+06,900
0.00934,0.0444,9.14347e-24,0.2226,0.733,6.10255e+06,900
0.00936,0.0444,2.75733e-24,0.2226,0.733,6.10255e+06,900
0.00938,0.0444,8.21328e-25,0.2226,0.733,6.10255e+06,900
0.0094,0.0444,2.41673e-25,0.2226,0.733,6.10255e+06,900
0.00942,0.0444,7.0252e-26,0.2226,0.733,6.10255e+06,900
0.00944,0.0444,2.01764e-26,0.2226,0.733,6.10255e+06,900
0.00946,0.0444,5.72557e-27,0.2226,0.733,6.10255e+06,900
0.00948,0.0444,1.60553e-27,0.2226,0.733,6.10255e+06,900
0.0095,0.0444,4.44916e-28,0.2226,0.733,6.10255e+06,900
0.00952,0.0444,1.21851e-28,0.2226,0.733,6.10255e+06,900
0.00954,0.0444,3.29844e-29,0.2226,0.733,6.10255e+06,900
0.00956,0.0444,1.70866e-29,0.2226,0.733,6.10255e+06,900
0.00958,0.0444,2.33439e-30,0.2226,0.733,6.10255e+06,900
0.0096,0.0444,6.10408e-31,0.2226,0.733,6.10255e+06,900
0.00962,0.0444,1.57804e-31,0.2226,0.733,6.10255e+06,900
0.00964,0.0444,4.03358e-32,0.2226,0.733,6.10255e+06,900
0.00966,0.0444,1.01946e-32,0.2226,0.733,6.10255e+06,900
0.00968,0.0444,2.54787e-33,0.2226,0.733,6.10255e+06,900
0.0097,0.0444,6.29709e-34,0.2226,0.733,6.10255e+06,900
0.00972,0.0444,1.53915e-34,0.2226,0.733,6.10255e+06,900
0.00974,0.0444,3.72071e-35,0.2226,0.733,6.10255e+06,900
0.00976,0.0444,8.89602e-36,0.2226,0.733,6.10255e+06,900
0.00978,0.0444,2.10384e-36,0.2226,0.733,6.10255e+06,900
0.0098,0.0444,4.92152e-37,0.2226,0.733,6.10255e+06,900
0.00982,0.0444,1.13888e-37,0.2226,0.733,6.10255e+06,900
0.00984,0.0444,2.60716e-38,0.2226,0.733,6.10255e+06,900
0.00986,0.0444,5.90453e-39,0.2226,0.733,6.10255e+06,900
0.00988,0.0444,1.32289e-39,0.2226,0.733,6.10255e+06,900
0.0099,0.0444,6.23613e-40,0.2226,0.733,6.10255e+06,900
0.00992,0.0444,6.41616e-41,0.2226,0.733,6.10255e+06,900
0.00994,0.0444,1.37833e-41,0.2226,0.733,6.10255e+06,900