x,NH3,C7H16,O2,N2,p,T
0,1.67982e-322,1,0,0,6.10254e+06,363
2e-05,0,1,0,1.11022e-16,6.10254e+06,363
4e-05,1.63042e-322,1,1.4822e-322,4.44089e-16,6.10254e+06,363
6e-05,1.58101e-322,1,1.33398e-322,2.22045e-16,6.10254e+06,363
8e-05,3.45846e-323,1,0,2.22045e-16,6.10254e+06,363
0.0001,0,1,1.72923e-322,2.22045e-16,6.10254e+06,363
0.00012,0,1,0,5.55112e-16,6.10254e+06,363
0.00014,0,1,0,5.55112e-16,6.10254e+06,363
0.00016,0,1,1.58101e-322,5.55112e-16,6.10254e+06,363
0.00018,0,1,0,2.22045e-16,6.10254e+06,363
0.0002,1.97626e-323,1,0,1.11022e-16,6.10254e+06,363
0.00022,2.47033e-323,1,0,3.33067e-16,6.10254e+06,363
0.00024,0,1,1.5316e-322,1.11022e-16,6.10254e+06,363
0.00026,1.38338e-322,1,0,2.22045e-16,6.10254e+06,363
0.00028,3.95253e-323,1,1.33398e-322,0,6.10254e+06,363
0.0003,1.28457e-322,1,0,1.11022e-16,6.10254e+06,363
0.00032,1.43279e-322,1,0,0,6.10254e+06,363
0.00034,2.47033e-323,1,0,1.11022e-16,6.10254e+06,363
0.00036,1.33398e-322,1,0,2.22045e-16,6.10254e+06,363
0.00038,1.97626e-323,1,0,1.11022e-16,6.10254e+06,363
0.0004,1.67982e-322,1,0,2.22045e-16,6.10254e+06,363
0.00042,0,1,1.23516e-322,6.66134e-16,6.10254e+06,363
0.00044,0,1,0,8.88178e-16,6.10254e+06,363
0.00046,0,1,1.43279e-322,1.22125e-15,6.10254e+06,363
0.00048,0,1,1.58101e-322,9.99201e-16,6.10254e+06,363
0.0005,0,1,0,1.33227e-15,6.10254e+06,363
0.00052,1.38338e-322,1,0,1.22125e-15,6.10254e+06,363
0.00054,0,1,0,1.33227e-15,6.10254e+06,363
0.00056,1.38338e-322,1,1.38338e-322,1.55431e-15,6.10254e+06,363
0.00058,0,1,0,1.55431e-15,6.10254e+06,363
0.0006,0,1,1.33398e-322,1.55431e-15,6.10254e+06,363
0.00062,0,1,3.70549e-322,1.66533e-15,6.10254e+06,363
0.00064,0,1,6.42285e-322,2.10942e-15,6.10254e+06,363
0.00066,0,1,3.31024e-322,1.33227e-15,6.10254e+06,363
0.00068,1.58101e-322,1,6.62048e-322,1.11022e-15,6.10254e+06,363
0.0007,2.47033e-323,1,3.50787e-322,1.11022e-15,6.10254e+06,363
0.00072,0,1,6.66989e-322,8.88178e-16,6.10254e+06,363
0.00074,0,1,4.5454e-322,1.22125e-15,6.10254e+06,363
0.00076,0,1,6.52167e-322,1.22125e-15,6.10254e+06,363
0.00078,0,1,8.54734e-322,1.22125e-15,6.10254e+06,363
0.0008,0,1,1.16599e-321,1.33227e-15,6.10254e+06,363
0.00082,0,1,1.15117e-321,1.44329e-15,6.10254e+06,363
0.00084,0,1,1.13141e-321,1.11022e-15,6.10254e+06,363
0.00086,0,1,1.35868e-321,1.55431e-15,6.10254e+06,363
0.00088,2.47033e-323,1,1.13141e-321,1.11022e-15,6.10254e+06,363
0.0009,0,1,1.36856e-321,7.77156e-16,6.10254e+06,363
0.00092,0,1,1.99603e-321,7.77156e-16,6.10254e+06,363
0.00094,0,1,2.50491e-321,1.11022e-15,6.10254e+06,363
0.00096,0,1,2.54444e-321,1.22125e-15,6.10254e+06,363
0.00098,0,1,2.49009e-321,1.33227e-15,6.10254e+06,363
0.001,0,1,2.50985e-321,1.11022e-15,6.10254e+06,363
0.00102,0,1,2.55926e-321,7.77156e-16,6.10254e+06,363
0.00104,0,1,2.53456e-321,1.11022e-15,6.10254e+06,363
0.00106,0,1,2.56914e-321,8.88178e-16,6.10254e+06,363
0.00108,9.88131e-324,1,2.65313e-321,6.66134e-16,6.10254e+06,363
0.0011,1.23516e-322,1,2.66301e-321,7.77156e-16,6.10254e+06,363
0.00112,1.28457e-322,1,3.07309e-321,2.22045e-16,6.10254e+06,363
0.00114,0,1,3.16202e-321,4.44089e-16,6.10254e+06,363
0.00116,1.63042e-322,1,4.32802e-321,7.77156e-16,6.10254e+06,363
0.00118,0,1,4.89718e-320,7.77156e-16,6.10254e+06,363
0.0012,0,1,1.29569e-318,5.55112e-16,6.10254e+06,363
0.00122,1.38338e-322,1,3.62416e-317,5.55112e-16,6.10254e+06,363
0.00124,0,1,1.01136e-315,2.22045e-16,6.10254e+06,363
0.00126,0,1,2.80946e-314,1.11022e-16,6.10254e+06,363
0.00128,1.5316e-322,1,7.76829e-313,3.33067e-16,6.10254e+06,363
0.0013,0,1,2.13799e-311,1.11022e-16,6.10254e+06,363
0.00132,0,1,5.85678e-310,7.77156e-16,6.10254e+06,363
0.00134,0,1,1.59691e-308,8.88178e-16,6.10254e+06,363
0.00136,0,1,4.33378e-307,8.88178e-16,6.10254e+06,363
0.00138,0,1,1.17061e-305,6.66134e-16,6.10254e+06,363
0.0014,0,1,3.14709e-304,1.11022e-16,6.10254e+06,363
0.00142,0,1,8.42088e-303,2.22045e-16,6.10254e+06,363
0.00144,0,1,2.24259e-301,0,6.10254e+06,363
0.00146,0,1,5.94403e-300,5.55112e-16,6.10254e+06,363
0.00148,5.73116e-322,1,1.568e-298,1.33227e-15,6.10254e+06,363
0.0015,9.86649e-321,1,4.11663e-297,4.44089e-16,6.10254e+06,363
0.00152,2.83366e-319,1,1.07563e-295,1.11022e-16,6.10254e+06,363
0.00154,8.82999e-318,1,2.79705e-294,0,6.10254e+06,363
0.00156,2.74443e-316,1,7.2386e-293,1.11022e-16,6.10254e+06,363
0.00158,8.48767e-315,1,1.86431e-291,0,6.10254e+06,363
0.0016,2.61193e-313,1,4.77842e-290,1.11022e-16,6.10254e+06,363
0.00162,7.99773e-312,1,1.21885e-288,2.22045e-16,6.10254e+06,363
0.00164,2.43669e-310,1,3.09394e-287,1.11022e-16,6.10254e+06,363
0.00166,7.38679e-309,1,7.81556e-286,2.22045e-16,6.10254e+06,363
0.00168,2.22808e-307,1,1.96468e-284,5.55112e-16,6.10254e+06,363
0.0017,6.68681e-306,1,4.91477e-283,5.55112e-16,6.10254e+06,363
0.00172,1.99672e-304,1,1.22345e-281,1.11022e-16,6.10254e+06,363
0.00174,5.93226e-303,1,3.03067e-280,3.33067e-16,6.10254e+06,363
0.00176,1.75357e-301,1,7.47056e-279,0,6.10254e+06,363
0.00178,5.1573e-300,1,1.83242e-277,1.11022e-16,6.10254e+06,363
0.0018,1.50908e-298,1,4.47246e-276,2.22045e-16,6.10254e+06,363
0.00182,4.39329e-297,1,1.08621e-274,2.22045e-16,6.10254e+06,363
0.00184,1.27247e-295,1,2.62497e-273,1.33227e-15,6.10254e+06,363
0.00186,3.66678e-294,1,6.31204e-272,8.88178e-16,6.10254e+06,363
0.00188,1.05122e-292,1,1.51024e-270,1.11022e-15,6.10254e+06,363
0.0019,2.99827e-291,1,3.59537e-269,7.77156e-16,6.10254e+06,363
0.00192,8.50768e-290,1,8.5165e-268,0,6.10254e+06,363
0.00194,2.40165e-288,1,2.00721e-266,0,6.10254e+06,363
0.00196,6.74471e-287,1,4.70685e-265,1.11022e-16,6.10254e+06,363
0.00198,1.88437e-285,1,1.09817e-263,1.11022e-16,6.10254e+06,363
0.002,5.23736e-284,1,2.54921e-262,1.11022e-16,6.10254e+06,363
0.00202,1.4481e-282,1,5.88751e-261,4.44089e-16,6.10254e+06,363
0.00204,3.98311e-281,1,1.35283e-259,5.55112e-16,6.10254e+06,363
0.00206,2.08489e-280,1,6.4724e-259,7.77156e-16,6.10254e+06,363
0.00208,2.96657e-278,1,7.03388e-257,1.11022e-15,6.10254e+06,363
0.0021,8.03258e-277,1,1.59156e-255,8.88178e-16,6.10254e+06,363
0.00212,2.16357e-275,1,3.58274e-254,6.66134e-16,6.10254e+06,363
0.00214,5.79696e-274,1,8.02344e-253,3.33067e-16,6.10254e+06,363
0.00216,1.54502e-272,1,1.78754e-251,0,6.10254e+06,363
0.00218,4.09612e-271,1,3.96182e-250,1.11022e-16,6.10254e+06,363
0.0022,1.08021e-269,1,8.73514e-249,6.66134e-16,6.10254e+06,363
0.00222,2.83358e-268,1,1.91592e-247,8.88178e-16,6.10254e+06,363
0.00224,7.39352e-267,1,4.18031e-246,5.55112e-16,6.10254e+06,363
0.00226,1.91889e-265,1,9.07318e-245,0,6.10254e+06,363
0.00228,4.95367e-264,1,1.95895e-243,1.11022e-16,6.10254e+06,363
0.0023,1.27197e-262,1,4.2072e-242,0,6.10254e+06,363
0.00232,3.24861e-261,1,8.988e-241,2.22045e-16,6.10254e+06,363
0.00234,8.2524e-260,1,1.90997e-239,6.66134e-16,6.10254e+06,363
0.00236,2.08508e-258,1,4.03719e-238,0,6.10254e+06,363
0.00238,5.23985e-257,1,8.48814e-237,1.11022e-16,6.10254e+06,363
0.0024,1.30968e-255,1,1.77509e-235,3.33067e-16,6.10254e+06,363
0.00242,3.25577e-254,1,3.6923e-234,3.33067e-16,6.10254e+06,363
0.00244,8.04977e-253,1,7.63897e-233,0,6.10254e+06,363
0.00246,1.97947e-251,1,1.57191e-231,0,6.10254e+06,363
0.00248,4.84108e-250,1,3.21715e-230,0,6.10254e+06,363
0.0025,1.1775e-248,1,6.54871e-229,0,6.10254e+06,363
0.00252,2.84839e-247,1,1.3258e-227,0,6.10254e+06,363
0.00254,6.85256e-246,1,2.66947e-226,0,6.10254e+06,363
0.00256,1.63952e-244,1,5.34561e-225,0,6.10254e+06,363
0.00258,3.90108e-243,1,1.06459e-223,0,6.10254e+06,363
0.0026,9.23108e-242,1,2.10853e-222,0,6.10254e+06,363
0.00262,2.17228e-240,1,4.15315e-221,0,6.10254e+06,363
0.00264,5.08357e-239,1,8.13523e-220,0,6.10254e+06,363
0.00266,1.18306e-237,1,1.58471e-218,0,6.10254e+06,363
0.00268,2.73794e-236,1,3.06981e-217,4.44089e-16,6.10254e+06,363
0.0027,6.3011e-235,1,5.91353e-216,1.11022e-16,6.10254e+06,363
0.00272,1.44204e-233,1,1.13279e-214,1.11022e-16,6.10254e+06,363
0.00274,3.28173e-232,1,2.1578e-213,0,6.10254e+06,363
0.00276,7.42656e-231,1,4.0872e-212,0,6.10254e+06,363
0.00278,1.67119e-229,1,7.69814e-211,0,6.10254e+06,363
0.0028,3.7395e-228,1,1.44173e-209,0,6.10254e+06,363
0.00282,8.32038e-227,1,2.68481e-208,0,6.10254e+06,363
0.00284,1.84082e-225,1,4.97126e-207,0,6.10254e+06,363
0.00286,4.0496e-224,1,9.15242e-206,0,6.10254e+06,363
0.00288,8.85808e-223,1,1.67538e-204,1.11022e-16,6.10254e+06,363
0.0029,1.92659e-221,1,3.04925e-203,2.22045e-16,6.10254e+06,363
0.00292,4.16634e-220,1,5.5178e-202,1.11022e-16,6.10254e+06,363
0.00294,8.9584e-219,1,9.92716e-201,1.11022e-16,6.10254e+06,363
0.00296,1.91519e-217,1,1.77567e-199,4.44089e-16,6.10254e+06,363
0.00298,4.07091e-216,1,3.15771e-198,1.11022e-16,6.10254e+06,363
0.003,8.6033e-215,1,5.58269e-197,4.44089e-16,6.10254e+06,363
0.00302,1.8077e-213,1,9.81231e-196,0,6.10254e+06,363
0.00304,3.77633e-212,1,1.71453e-194,3.33067e-16,6.10254e+06,363
0.00306,7.84313e-211,1,2.97825e-193,4.44089e-16,6.10254e+06,363
0.00308,1.61949e-209,1,5.14289e-192,0,6.10254e+06,363
0.0031,3.32455e-208,1,8.82831e-191,3.33067e-16,6.10254e+06,363
0.00312,6.7849e-207,1,1.50648e-189,5.55112e-16,6.10254e+06,363
0.00314,1.3766e-205,1,2.55539e-188,3.33067e-16,6.10254e+06,363
0.00316,2.77661e-204,1,4.30875e-187,4.44089e-16,6.10254e+06,363
0.00318,5.56753e-203,1,7.22163e-186,3.33067e-16,6.10254e+06,363
0.0032,1.10979e-201,1,1.2031e-184,5.55112e-16,6.10254e+06,363
0.00322,2.19912e-200,1,1.99226e-183,0,6.10254e+06,363
0.00324,4.33185e-199,1,3.2791e-182,5.55112e-16,6.10254e+06,363.001
0.00326,8.48226e-198,1,5.36441e-181,2.22045e-16,6.10254e+06,363.001
0.00328,1.65103e-196,1,8.72246e-180,0,6.10254e+06,363.001
0.0033,3.19446e-195,1,1.4096e-178,1.11022e-16,6.10254e+06,363.001
0.00332,6.14371e-194,1,2.26405e-177,0,6.10254e+06,363.001
0.00334,1.17449e-192,1,3.6141e-176,0,6.10254e+06,363.001
0.00336,2.23174e-191,1,5.73363e-175,2.22045e-16,6.10254e+06,363.001
0.00338,4.21512e-190,1,9.03992e-174,2.22045e-16,6.10254e+06,363.001
0.0034,7.91292e-189,1,1.41644e-172,5.55112e-16,6.10254e+06,363.001
0.00342,1.47645e-187,1,2.20556e-171,5.55112e-16,6.10254e+06,363.001
0.00344,2.73808e-186,1,3.41287e-170,0,6.10254e+06,363.001
0.00346,5.04676e-185,1,5.24797e-169,1.11022e-16,6.10254e+06,363.001
0.00348,9.24505e-184,1,8.01907e-168,5.55112e-16,6.10254e+06,363.001
0.0035,1.68317e-182,1,1.21761e-166,1.11022e-16,6.10254e+06,363.001
0.00352,3.04552e-181,1,1.83712e-165,0,6.10254e+06,363.001
0.00354,5.47644e-180,1,2.75423e-164,1.11022e-16,6.10254e+06,363.001
0.00356,9.78661e-179,1,4.10287e-163,3.33067e-16,6.10254e+06,363.001
0.00358,1.73802e-177,1,6.07281e-162,1.11022e-16,6.10254e+06,363.001
0.0036,3.06728e-176,1,8.93095e-161,0,6.10254e+06,363.001
0.00362,5.37926e-175,1,1.30497e-159,6.66134e-16,6.10254e+06,363.001
0.00364,9.37457e-174,1,1.89449e-158,0,6.10254e+06,363.001
0.00366,1.62342e-172,1,2.73249e-157,2.22045e-16,6.10254e+06,363.001
0.00368,2.79351e-171,1,3.91556e-156,6.66134e-16,6.10254e+06,363.001
0.0037,4.77639e-170,1,5.57423e-155,5.55112e-16,6.10254e+06,363.001
0.00372,8.11465e-169,1,7.88359e-154,1.11022e-16,6.10254e+06,363.001
0.00374,1.36978e-167,1,1.10764e-152,2.22045e-16,6.10254e+06,363.001
0.00376,2.29737e-166,1,1.54598e-151,6.66134e-16,6.10254e+06,363.001
0.00378,3.82825e-165,1,2.14351e-150,6.66134e-16,6.10254e+06,363.001
0.0038,6.33793e-164,1,2.95225e-149,2.22045e-16,6.10254e+06,363.001
0.00382,1.04247e-162,1,4.03903e-148,5.55112e-16,6.10254e+06,363.001
0.00384,1.70347e-161,1,5.48894e-147,9.99201e-16,6.10254e+06,363.001
0.00386,2.76534e-160,1,7.40928e-146,9.99201e-16,6.10254e+06,363.001
0.00388,4.45962e-159,1,9.9341e-145,5.55112e-16,6.10254e+06,363.001
0.0039,7.14444e-158,1,1.32293e-143,2.22045e-16,6.10254e+06,363.001
0.00392,1.13697e-156,1,1.7498e-142,3.33067e-16,6.10254e+06,363.001
0.00394,1.79732e-155,1,2.29865e-141,0,6.10254e+06,363.001
0.00396,2.8222e-154,1,2.99904e-140,1.11022e-15,6.10254e+06,363.001
0.00398,4.40172e-153,1,3.88599e-139,1.44329e-15,6.10254e+06,363.001
0.004,6.81895e-152,1,5.0006e-138,1.44329e-15,6.10254e+06,363.001
0.00402,1.0492e-150,1,6.39047e-137,1.55431e-15,6.10254e+06,363.001
0.00404,1.60338e-149,1,8.11002e-136,1.55431e-15,6.10254e+06,363.001
0.00406,2.43351e-148,1,1.02206e-134,1.44329e-15,6.10254e+06,363.001
0.00408,3.66807e-147,1,1.27906e-133,9.99201e-16,6.10254e+06,363.001
0.0041,5.49081e-146,1,1.58945e-132,2.22045e-16,6.10254e+06,363.001
0.00412,2.11887e-145,1,5.58825e-132,1.11022e-16,6.10254e+06,363.001
0.00414,1.20493e-143,1,2.40297e-130,2.22045e-16,6.10254e+06,363.001
0.00416,1.76627e-142,1,2.92327e-129,2.22045e-16,6.10254e+06,363.001
0.00418,2.57095e-141,1,3.53092e-128,7.77156e-16,6.10254e+06,363.001
0.0042,3.7158e-140,1,4.2344e-127,3.33067e-16,6.10254e+06,363.001
0.00422,5.33238e-139,1,5.04162e-126,3.33067e-16,6.10254e+06,363.001
0.00424,7.59772e-138,1,5.95951e-125,5.55112e-16,6.10254e+06,363.001
0.00426,1.07479e-136,1,6.9936e-124,3.33067e-16,6.10254e+06,363.001
0.00428,1.50949e-135,1,8.14757e-123,0,6.10254e+06,363.001
0.0043,2.10467e-134,1,9.4228e-122,0,6.10254e+06,363.001
0.00432,2.91321e-133,1,1.08179e-120,6.66134e-16,6.10254e+06,363.001
0.00434,4.00292e-132,1,1.23284e-119,4.44089e-16,6.10254e+06,363.001
0.00436,5.4599e-131,1,1.39463e-118,8.88178e-16,6.10254e+06,363.001
0.00438,7.39228e-130,1,1.56597e-117,7.77156e-16,6.10254e+06,363.001
0.0044,9.93441e-129,1,1.7453e-116,5.55112e-16,6.10254e+06,363.001
0.00442,1.32513e-127,1,1.93065e-115,1.11022e-15,6.10254e+06,363.001
0.00444,1.75434e-126,1,2.11969e-114,8.88178e-16,6.10254e+06,363.001
0.00446,6.36521e-126,1,7.0037e-114,3.33067e-16,6.10254e+06,363.001
0.00448,3.00586e-124,1,2.49781e-112,1.22125e-15,6.10254e+06,363.001
0.0045,3.88988e-123,1,2.68072e-111,1.33227e-15,6.10254e+06,363.001
0.00452,4.99544e-122,1,2.85511e-110,1.11022e-15,6.10254e+06,363.001
0.00454,6.36596e-121,1,3.01759e-109,9.99201e-16,6.10254e+06,363.001
0.00456,8.04989e-120,1,3.16484e-108,1.22125e-15,6.10254e+06,363.001
0.00458,1.01003e-118,1,3.29367e-107,1.88738e-15,6.10254e+06,363.001
0.0046,1.25742e-117,1,3.4012e-106,1.66533e-15,6.10254e+06,363.001
0.00462,1.55313e-116,1,3.48493e-105,1.77636e-15,6.10254e+06,363.001
0.00464,1.90327e-115,1,3.54282e-104,1.33227e-15,6.10254e+06,363.001
0.00466,2.31388e-114,1,3.57342e-103,2.22045e-16,6.10254e+06,363.001
0.00468,2.79068e-113,1,3.57589e-102,8.88178e-16,6.10254e+06,363.001
0.0047,3.33879e-112,1,3.55004e-101,8.88178e-16,6.10254e+06,363.001
0.00472,3.96242e-111,1,3.49635e-100,1.66533e-15,6.10254e+06,363.001
0.00474,4.66449e-110,1,3.41598e-99,9.99201e-16,6.10254e+06,363.002
0.00476,5.44631e-109,1,3.31068e-98,9.99201e-16,6.10254e+06,363.002
0.00478,6.3072e-108,1,3.18277e-97,7.77156e-16,6.10254e+06,363.002
0.0048,7.24414e-107,1,3.03503e-96,1.66533e-15,6.10254e+06,363.002
0.00482,8.25152e-106,1,2.87061e-95,1.88738e-15,6.10254e+06,363.002
0.00484,9.32091e-105,1,2.69291e-94,1.66533e-15,6.10254e+06,363.002
0.00486,1.0441e-103,1,2.50546e-93,1.88738e-15,6.10254e+06,363.002
0.00488,1.15974e-102,1,2.31183e-92,1.44329e-15,6.10254e+06,363.002
0.0049,1.27732e-101,1,2.11547e-91,1.66533e-15,6.10254e+06,363.002
0.00492,1.39488e-100,1,1.91966e-90,1.55431e-15,6.10254e+06,363.002
0.00494,1.51026e-99,1,1.72739e-89,1.55431e-15,6.10254e+06,363.002
0.00496,1.62116e-98,1,1.54129e-88,1.33227e-15,6.10254e+06,363.002
0.00498,1.72518e-97,1,1.36361e-87,1.77636e-15,6.10254e+06,363.002
0.005,1.81995e-96,1,1.19615e-86,1.88738e-15,6.10254e+06,363.002
0.00502,1.90319e-95,1,1.04029e-85,1.9984e-15,6.10254e+06,363.002
0.00504,1.97277e-94,1,8.96957e-85,1.55431e-15,6.10254e+06,363.002
0.00506,2.02686e-93,1,7.66692e-84,1.77636e-15,6.10254e+06,363.002
0.00508,2.06398e-92,1,6.49651e-83,7.77156e-16,6.10254e+06,363.002
0.0051,2.08302e-91,1,5.45668e-82,9.99201e-16,6.10254e+06,363.002
0.00512,6.59514e-91,1,1.57622e-81,1.33227e-15,6.10254e+06,363.002
0.00514,2.06498e-89,1,3.74889e-80,2.33147e-15,6.10254e+06,363.002
0.00516,2.02817e-88,1,3.06609e-79,2.44249e-15,6.10254e+06,363.002
0.00518,1.97385e-87,1,2.48522e-78,1.9984e-15,6.10254e+06,363.002
0.0052,1.90338e-86,1,1.99627e-77,2.44249e-15,6.10254e+06,363.002
0.00522,1.81849e-85,1,1.58901e-76,1.44329e-15,6.10254e+06,363.002
0.00524,1.72127e-84,1,1.25331e-75,3.33067e-16,6.10254e+06,363.002
0.00526,1.61406e-83,1,9.79473e-75,3.33067e-16,6.10254e+06,363.002
0.00528,1.49933e-82,1,7.58403e-74,9.99201e-16,6.10254e+06,363.002
0.0053,1.37961e-81,1,5.81776e-73,8.88178e-16,6.10254e+06,363.002
0.00532,1.25741e-80,1,4.42112e-72,5.55112e-16,6.10254e+06,363.002
0.00534,1.1351e-79,1,3.32814e-71,1.55431e-15,6.10254e+06,363.003
0.00536,1.01485e-78,1,2.48163e-70,9.99201e-16,6.10254e+06,363.003
0.00538,8.98587e-78,1,1.83276e-69,1.44329e-15,6.10254e+06,363.003
0.0054,7.87914e-77,1,1.34054e-68,5.55112e-16,6.10254e+06,363.003
0.00542,6.84126e-76,1,9.71023e-68,2.22045e-16,6.10254e+06,363.003
0.00544,5.88174e-75,1,6.96501e-67,1.11022e-16,6.10254e+06,363.003
0.00546,5.00684e-74,1,4.94682e-66,3.33067e-16,6.10254e+06,363.003
0.00548,4.21972e-73,1,3.47863e-65,4.44089e-16,6.10254e+06,363.003
0.0055,3.52079e-72,1,2.42178e-64,1.11022e-16,6.10254e+06,363.003
0.00552,2.90809e-71,1,1.66906e-63,1.11022e-16,6.10254e+06,363.003
0.00554,2.37771e-70,1,1.13864e-62,6.66134e-16,6.10254e+06,363.003
0.00556,1.92428e-69,1,7.68841e-62,3.33067e-16,6.10254e+06,363.003
0.00558,1.54137e-68,1,5.13796e-61,1.44329e-15,6.10254e+06,363.003
0.0056,1.22194e-67,1,3.39789e-60,2.77556e-15,6.10254e+06,363.003
0.00562,9.58675e-67,1,2.22359e-59,2.10942e-15,6.10254e+06,363.003
0.00564,7.44288e-66,1,1.43975e-58,2.44249e-15,6.10254e+06,363.003
0.00566,5.71784e-65,1,9.22288e-58,8.88178e-16,6.10254e+06,363.003
0.00568,4.34626e-64,1,5.84455e-57,1.55431e-15,6.10254e+06,363.003
0.0057,3.26862e-63,1,3.66353e-56,0,6.10254e+06,363.004
0.00572,2.43192e-62,1,2.27128e-55,0,6.10254e+06,363.004
0.00574,1.78995e-61,1,1.39257e-54,0,6.10254e+06,363.004
0.00576,1.3032e-60,1,8.44304e-54,0,6.10254e+06,363.004
0.00578,9.38485e-60,1,5.06136e-53,0,6.10254e+06,363.004
0.0058,6.68441e-59,1,2.99969e-52,6.66134e-16,6.10254e+06,363.004
0.00582,4.70855e-58,1,1.75744e-51,1.11022e-15,6.10254e+06,363.004
0.00584,3.27996e-57,1,1.01772e-50,1.44329e-15,6.10254e+06,363.004
0.00586,2.25931e-56,1,5.82471e-50,1.55431e-15,6.10254e+06,363.004
0.00588,1.53879e-55,1,3.29433e-49,8.88178e-16,6.10254e+06,363.004
0.0059,1.03621e-54,1,1.841e-48,1.11022e-16,6.10254e+06,363.004
0.00592,6.89837e-54,1,1.01645e-47,3.33067e-16,6.10254e+06,363.004
0.00594,4.53989e-53,1,5.5438e-47,1.33227e-15,6.10254e+06,363.005
0.00596,2.95332e-52,1,2.98653e-46,1.55431e-15,6.10254e+06,363.005
0.00598,1.89894e-51,1,1.58894e-45,5.55112e-16,6.10254e+06,363.005
0.006,1.20674e-50,1,8.34781e-45,5.55112e-16,6.10254e+06,363.005
0.00602,7.57844e-50,1,4.33019e-44,1.22125e-15,6.10254e+06,363.005
0.00604,4.70307e-49,1,2.21744e-43,1.55431e-15,6.10254e+06,363.005
0.00606,2.8839e-48,1,1.12085e-42,3.33067e-16,6.10254e+06,363.005
0.00608,1.7472e-47,1,5.59161e-42,4.44089e-16,6.10254e+06,363.005
0.0061,1.04577e-46,1,2.75267e-41,0,6.10254e+06,363.005
0.00612,6.18327e-46,1,1.33702e-40,0,6.10254e+06,363.006
0.00614,3.61126e-45,1,6.40661e-40,0,6.10254e+06,363.006
0.00616,2.08314e-44,1,3.028e-39,0,6.10254e+06,363.006
0.00618,1.18676e-43,1,1.41142e-38,0,6.10254e+06,363.006
0.0062,6.67652e-43,1,6.48729e-38,0,6.10254e+06,363.006
0.00622,3.70891e-42,1,2.93973e-37,0,6.10254e+06,363.006
0.00624,2.03428e-41,1,1.31316e-36,0,6.10254e+06,363.006
0.00626,1.10156e-40,1,5.78132e-36,0,6.10254e+06,363.007
0.00628,5.88835e-40,1,2.50819e-35,2.22045e-16,6.10254e+06,363.007
0.0063,3.10694e-39,1,1.07212e-34,6.66134e-16,6.10254e+06,363.007
0.00632,1.61801e-38,1,4.51446e-34,1.22125e-15,6.10254e+06,363.007
0.00634,8.31577e-38,1,1.87227e-33,2.33147e-15,6.10254e+06,363.007
0.00636,4.21747e-37,1,7.64636e-33,9.99201e-16,6.10254e+06,363.007
0.00638,2.11052e-36,1,3.0746e-32,8.88178e-16,6.10254e+06,363.008
0.0064,1.04202e-35,1,1.217e-31,7.77156e-16,6.10254e+06,363.008
0.00642,5.07529e-35,1,4.7411e-31,1.11022e-15,6.10254e+06,363.008
0.00644,2.43842e-34,1,1.81752e-30,8.88178e-16,6.10254e+06,363.008
0.00646,1.15551e-33,1,6.85499e-30,1.66533e-15,6.10254e+06,363.008
0.00648,5.40018e-33,1,2.54323e-29,4.44089e-16,6.10254e+06,363.009
0.0065,2.4887e-32,1,9.27975e-29,0,6.10254e+06,363.009
0.00652,1.13089e-31,1,3.32952e-28,1.11022e-16,6.10254e+06,363.009
0.00654,5.06643e-31,1,1.17449e-27,2.22045e-16,6.10254e+06,363.009
0.00656,2.23756e-30,1,4.0726e-27,6.66134e-16,6.10254e+06,363.01
0.00658,9.74071e-30,1,1.38798e-26,8.88178e-16,6.10254e+06,363.01
0.0066,4.17927e-29,1,4.64871e-26,1.44329e-15,6.10254e+06,363.01
0.00662,1.76709e-28,1,1.52994e-25,4.44089e-16,6.10254e+06,363.011
0.00664,7.36226e-28,1,4.94749e-25,0,6.10254e+06,363.011
0.00666,3.02213e-27,1,1.57201e-24,3.33067e-16,6.10254e+06,363.011
0.00668,1.22211e-26,1,4.90809e-24,5.55112e-16,6.10254e+06,363.011
0.0067,4.86808e-26,1,1.50595e-23,7.77156e-16,6.10254e+06,363.012
0.00672,1.90986e-25,1,4.54213e-23,1.88738e-15,6.10254e+06,363.012
0.00674,7.37884e-25,1,1.34717e-22,1.77636e-15,6.10254e+06,363.012
0.00676,2.80717e-24,1,3.93138e-22,1.88738e-15,6.10254e+06,363.013
0.00678,1.05144e-23,1,1.12969e-21,2.88658e-15,6.10254e+06,363.013
0.0068,3.87688e-23,1,3.19977e-21,4.10783e-15,6.10254e+06,363.014
0.00682,1.40702e-22,1,8.9454e-21,3.88578e-15,6.10254e+06,363.014
0.00684,5.02545e-22,1,2.47242e-20,4.55191e-15,6.10254e+06,363.014
0.00686,1.76623e-21,1,6.76928e-20,4.21885e-15,6.10254e+06,363.015
0.00688,6.10745e-21,1,1.84011e-19,2.55351e-15,6.10254e+06,363.015
0.0069,2.07759e-20,1,4.97826e-19,2.22045e-15,6.10254e+06,363.016
0.00692,6.95185e-20,1,1.34368e-18,2.88658e-15,6.10254e+06,363.016
0.00694,2.28781e-19,1,3.62602e-18,1.33227e-15,6.10254e+06,363.017
0.00696,7.40379e-19,1,9.79914e-18,6.66134e-16,6.10254e+06,363.017
0.00698,2.35588e-18,1,2.65429e-17,9.99201e-16,6.10254e+06,363.018
0.007,7.37354e-18,1,7.20948e-17,0,6.10254e+06,363.018
0.00702,2.27292e-17,1,1.96435e-16,0,6.10254e+06,363.019
0.00704,6.89074e-17,1,5.35562e-16,2.22045e-15,6.10254e+06,363.019
0.00706,2.12332e-16,1,1.50531e-15,1.12133e-14,6.10254e+06,363.02
0.00708,6.76726e-16,1,4.43561e-15,4.13003e-14,6.10254e+06,363.02
0.0071,2.30097e-15,1,1.41258e-14,1.32006e-13,6.10254e+06,363.021
0.00712,8.20423e-15,1,4.77897e-14,4.38427e-13,6.10254e+06,363.022
0.00714,2.93961e-14,1,1.64166e-13,1.45184e-12,6.10254e+06,363.023
0.00716,1.03394e-13,1,5.57448e-13,4.72034e-12,6.10254e+06,363.024
0.00718,3.54222e-13,1,1.85242e-12,1.49905e-11,6.10254e+06,363.025
0.0072,1.1794e-12,1,6.00311e-12,4.64451e-11,6.10254e+06,363.028
0.00722,3.81391e-12,1,1.89467e-11,1.40263e-10,6.10254e+06,363.031
0.00724,1.19759e-11,1,5.82012e-11,4.12715e-10,6.10254e+06,363.037
0.00726,3.65114e-11,1,1.73942e-10,1.18281e-09,6.10254e+06,363.046
0.00728,1.0807e-10,1,5.05627e-10,3.3009e-09,6.10254e+06,363.06
0.0073,3.1054e-10,1,1.42925e-09,8.96832e-09,6.10254e+06,363.084
0.00732,8.66235e-10,1,3.92783e-09,2.37175e-08,6.10254e+06,363.123
0.00734,2.34547e-09,1,1.04925e-08,6.1042e-08,6.10254e+06,363.185
0.00736,6.164e-09,1,2.724e-08,1.52866e-07,6.10254e+06,363.284
0.00738,1.57212e-08,1,6.87149e-08,3.72422e-07,6.10254e+06,363.437
0.0074,3.89072e-08,0.999999,1.6839e-07,8.82487e-07,6.10254e+06,363.674
0.00742,9.34137e-08,0.999997,4.00764e-07,2.03341e-06,6.10254e+06,364.034
0.00744,2.17523e-07,0.999994,9.26056e-07,4.55463e-06,6.10254e+06,364.57
0.00746,4.91081e-07,0.999988,2.0768e-06,9.91373e-06,6.10254e+06,365.359
0.00748,1.07436e-06,0.999973,4.51811e-06,2.09595e-05,6.10254e+06,366.497
0.0075,2.2763e-06,0.999945,9.52966e-06,4.30176e-05,6.10254e+06,368.109
0.00752,4.66753e-06,0.99989,1.94745e-05,8.56557e-05,6.10254e+06,370.35
0.00754,9.2547e-06,0.999787,3.853e-05,0.000165349,6.10254e+06,373.397
0.00756,1.77285e-05,0.999599,7.37443e-05,0.000309204,6.10254e+06,377.449
0.00758,3.27833e-05,0.999271,0.000136436,0.000559729,6.10254e+06,382.709
0.0076,5.84812e-05,0.998717,0.000243862,0.000980284,6.10254e+06,389.366
0.00762,0.000100602,0.997818,0.000420962,0.0016605,6.10254e+06,397.577
0.00764,0.000166904,0.996411,0.000701891,0.00272066,6.10254e+06,407.445
0.00766,0.000267218,0.994288,0.00113104,0.00431417,6.10254e+06,419.015
0.00768,0.000413354,0.991196,0.00176337,0.00662758,6.10254e+06,432.27
0.0077,0.00061884,0.986838,0.00266412,0.00987858,6.10254e+06,447.141
0.00772,0.000898594,0.980881,0.00390801,0.0143127,6.10254e+06,463.53
0.00774,0.00126861,0.972953,0.00557844,0.0201996,6.10254e+06,481.321
0.00776,0.00174572,0.962657,0.00776672,0.0278304,6.10254e+06,500.397
0.00778,0.00234754,0.949565,0.0105717,0.0375157,6.10254e+06,520.644
0.0078,0.0030924,0.933225,0.0140992,0.0495834,6.10254e+06,541.954
0.00782,0.00399933,0.913163,0.0184615,0.0643762,6.10254e+06,564.217
0.00784,0.00508791,0.888891,0.0237759,0.0822457,6.10254e+06,587.309
0.00786,0.00570647,0.875022,0.0268272,0.0924439,6.10254e+06,599.12
0.00788,0.0078874,0.825792,0.0377297,0.128591,6.10254e+06,635.324
0.0079,0.00872979,0.806669,0.04199,0.142611,6.10254e+06,647.547
0.00792,0.0116242,0.740647,0.0567829,0.190946,6.10254e+06,684.131
0.00794,0.0138632,0.689344,0.0683516,0.228442,6.10254e+06,707.953
0.00796,0.0163377,0.632495,0.0812278,0.26994,6.10254e+06,730.796
0.00798,0.0190178,0.57081,0.0952507,0.314921,6.10254e+06,752.191
0.008,0.0218524,0.505495,0.110139,0.362513,6.10254e+06,771.717
0.00802,0.0247688,0.438259,0.125488,0.411483,6.10254e+06,789.071
0.00804,0.0276766,0.371219,0.140795,0.460309,6.10254e+06,804.123
0.00806,0.0304773,0.306684,0.155509,0.50733,6.10254e+06,816.936
0.00808,0.0330775,0.246848,0.169109,0.550965,6.10254e+06,827.737
0.0081,0.035402,0.19348,0.181181,0.589938,6.10254e+06,836.862
0.00812,0.0374043,0.147689,0.191468,0.623438,6.10254e+06,844.669
0.00814,0.0390687,0.10985,0.199897,0.651184,6.10254e+06,851.474
0.00816,0.0404076,0.07968,0.206545,0.673367,6.10254e+06,857.52
0.00818,0.0414532,0.0564146,0.211605,0.690527,6.10254e+06,862.967
0.0082,0.0418794,0.0470539,0.213617,0.69745,6.10254e+06,865.496
0.00822,0.0428408,0.0263914,0.217975,0.712793,6.10254e+06,872.384
0.00824,0.0430743,0.0215258,0.218975,0.716425,6.10254e+06,874.457
0.00826,0.0435843,0.0113104,0.221008,0.724097,6.10254e+06,880.034
0.00828,0.0438061,0.0071733,0.221783,0.727237,6.10254e+06,883.231
0.0083,0.0439633,0.00445606,0.222257,0.729323,6.10254e+06,886.031
0.00832,0.0440749,0.00271189,0.222531,0.730682,6.10254e+06,888.457
0.00834,0.0441545,0.00161738,0.222676,0.731552,6.10254e+06,890.537
0.00836,0.0442119,0.000946433,0.222742,0.7321,6.10254e+06,892.299
0.00838,0.0442525,0.000566741,0.222758,0.732423,6.10254e+06,893.741
0.0084,0.0442843,0.000322245,0.222754,0.732639,6.10254e+06,894.975
0.00842,0.0443089,0.00017654,0.222739,0.732776,6.10254e+06,896.002
0.00844,0.0443278,9.47841e-05,0.222718,0.732859,6.10254e+06,896.843
0.00846,0.0443427,4.98485e-05,0.222697,0.732911,6.10254e+06,897.525
0.00848,0.0443545,2.56721e-05,0.222677,0.732943,6.10254e+06,898.074
0.0085,0.044364,1.29453e-05,0.22266,0.732963,6.10254e+06,898.512
0.00852,0.0443715,6.39111e-06,0.222647,0.732975,6.10254e+06,898.858
0.00854,0.0443747,4.4551e-06,0.222641,0.73298,6.10254e+06,899.003
0.00856,0.0443825,1.46176e-06,0.222627,0.732989,6.10254e+06,899.342
0.00858,0.0443845,9.97556e-07,0.222623,0.732991,6.10254e+06,899.43
0.0086,0.0443894,3.07088e-07,0.222615,0.732996,6.10254e+06,899.632
0.00862,0.0443918,1.36329e-07,0.222611,0.732997,6.10254e+06,899.728
0.00864,0.0443938,5.92466e-08,0.222608,0.732998,6.10254e+06,899.8
0.00866,0.0443953,2.52048e-08,0.222606,0.732999,6.10254e+06,899.854
0.00868,0.0443964,1.04966e-08,0.222604,0.733,6.10254e+06,899.895
0.0087,0.0443973,4.27909e-09,0.222603,0.733,6.10254e+06,899.924
0.00872,0.044398,1.70734e-09,0.222602,0.733,6.10254e+06,899.946
0.00874,0.0443985,6.66223e-10,0.222601,0.733,6.10254e+06,899.962
0.00876,0.0443989,2.60599e-10,0.222601,0.733,6.10254e+06,899.973
0.00878,0.0443992,1.15376e-10,0.222601,0.733,6.10254e+06,899.981
0.0088,0.0443994,4.18348e-11,0.2226,0.733,6.10254e+06,899.987
0.00882,0.0443996,1.48978e-11,0.2226,0.733,6.10254e+06,899.991
0.00884,0.0443997,5.20346e-12,0.2226,0.733,6.10254e+06,899.994
0.00886,0.0443998,1.78309e-12,0.2226,0.733,6.10254e+06,899.996
0.00888,0.0443998,1.03618e-12,0.2226,0.733,6.10254e+06,899.997
0.0089,0.0443999,1.97345e-13,0.2226,0.733,6.10254e+06,899.998
0.00892,0.0443999,1.12425e-13,0.2226,0.733,6.10254e+06,899.999
0.00894,0.0443999,2.02464e-14,0.2226,0.733,6.10254e+06,899.999
0.00896,0.0444,6.37393e-15,0.2226,0.733,6.10254e+06,900
0.00898,0.0444,2.02981e-15,0.2226,0.733,6.10254e+06,900
0.009,0.0444,6.73311e-16,0.2226,0.733,6.10254e+06,900
0.00902,0.0444,2.34331e-16,0.2226,0.733,6.10254e+06,900
0.00904,0.0444,8.37438e-17,0.2226,0.733,6.10254e+06,900
0.00906,0.0444,3.00871e-17,0.2226,0.733,6.10254e+06,900
0.00908,0.0444,1.07476e-17,0.2226,0.733,6.10254e+06,900
0.0091,0.0444,3.79952e-18,0.2226,0.733,6.10254e+06,900
0.00912,0.0444,1.32701e-18,0.2226,0.733,6.10254e+06,900
0.00914,0.0444,4.5767e-19,0.2226,0.733,6.10254e+06,900
0.00916,0.0444,1.558e-19,0.2226,0.733,6.10254e+06,900
0.00918,0.0444,5.23576e-20,0.2226,0.733,6.10254e+06,900
0.0092,0.0444,1.73705e-20,0.2226,0.733,6.10254e+06,900
0.00922,0.0444,9.95736e-21,0.2226,0.733,6.10254e+06,900
0.00924,0.0444,1.84011e-21,0.2226,0.733,6.10254e+06,900
0.00926,0.0444,5.87622e-22,0.2226,0.733,6.10254e+06,900
0.00928,0.0444,1.85303e-22,0.2226,0.733,6.10254e+06,900
0.0093,0.0444,5.77067e-23,0.2226,0.733,6.10254e+06,900
0.00932,0.0444,1.77484e-23,0.2226,0.733,6.10254e+06,900
0.00934,0.0444,5.39153e-24,0.2226,0.733,6.10254e+06,900
0.00936,0.0444,1.61777e-24,0.2226,0.733,6.10254e+06,900
0.00938,0.0444,4.79517e-25,0.2226,0.733,6.10254e+06,900
0.0094,0.0444,1.40413e-25,0.2226,0.733,6.10254e+06,900
0.00942,0.0444,4.0622e-26,0.2226,0.733,6.10254e+06,900
0.00944,0.0444,1.16117e-26,0.2226,0.733,6.10254e+06,900
0.00946,0.0444,3.27977e-27,0.2226,0.733,6.10254e+06,900
0.00948,0.0444,9.15451e-28,0.2226,0.733,6.10254e+06,900
0.0095,0.0444,2.52524e-28,0.2226,0.733,6.10254e+06,900
0.00952,0.0444,6.88455e-29,0.2226,0.733,6.10254e+06,900
0.00954,0.0444,1.85517e-29,0.2226,0.733,6.10254e+06,900
0.00956,0.0444,9.58846e-30,0.2226,0.733,6.10254e+06,900
0.00958,0.0444,1.30114e-30,0.2226,0.733,6.10254e+06,900
0.0096,0.0444,3.38697e-31,0.2226,0.733,6.10254e+06,900
0.00962,0.0444,8.71661e-32,0.2226,0.733,6.10254e+06,900
0.00964,0.0444,2.21799e-32,0.2226,0.733,6.10254e+06,900
0.00966,0.0444,5.58054e-33,0.2226,0.733,6.10254e+06,900
0.00968,0.0444,1.38842e-33,0.2226,0.733,6.10254e+06,900