x,NH3,C7H16,O2,N2,p,T
0,1.67982e-322,1,0,0,6.10255e+06,363
2e-05,0,1,0,0,6.10255e+06,363
4e-05,1.63042e-322,1,1.4822e-322,0,6.10255e+06,363
6e-05,1.58101e-322,1,1.33398e-322,1.11022e-16,6.10255e+06,363
8e-05,3.45846e-323,1,0,3.33067e-16,6.10255e+06,363
0.0001,0,1,1.72923e-322,2.22045e-16,6.10255e+06,363
0.00012,0,1,0,1.11022e-16,6.10255e+06,363
0.00014,0,1,0,1.11022e-16,6.10255e+06,363
0.00016,0,1,1.58101e-322,1.11022e-16,6.10255e+06,363
0.00018,0,1,0,2.22045e-16,6.10255e+06,363
0.0002,1.97626e-323,1,0,2.22045e-16,6.10255e+06,363
0.00022,2.47033e-323,1,0,0,6.10255e+06,363
0.00024,0,1,1.5316e-322,0,6.10255e+06,363
0.00026,1.38338e-322,1,0,1.11022e-16,6.10255e+06,363
0.00028,3.95253e-323,1,1.33398e-322,3.33067e-16,6.10255e+06,363
0.0003,1.28457e-322,1,0,0,6.10255e+06,363
0.00032,1.43279e-322,1,0,0,6.10255e+06,363
0.00034,2.47033e-323,1,0,2.22045e-16,6.10255e+06,363
0.00036,1.33398e-322,1,0,2.22045e-16,6.10255e+06,363
0.00038,1.97626e-323,1,0,2.22045e-16,6.10255e+06,363
0.0004,1.67982e-322,1,0,1.11022e-16,6.10255e+06,363
0.00042,0,1,1.23516e-322,1.11022e-16,6.10255e+06,363
0.00044,0,1,0,2.22045e-16,6.10255e+06,363
0.00046,0,1,1.43279e-322,3.33067e-16,6.10255e+06,363
0.00048,0,1,1.58101e-322,3.33067e-16,6.10255e+06,363
0.0005,0,1,0,4.44089e-16,6.10255e+06,363
0.00052,1.38338e-322,1,0,1.11022e-16,6.10255e+06,363
0.00054,0,1,0,2.22045e-16,6.10255e+06,363
0.00056,1.38338e-322,1,1.38338e-322,8.88178e-16,6.10255e+06,363
0.00058,0,1,0,1.11022e-15,6.10255e+06,363
0.0006,0,1,1.33398e-322,1.22125e-15,6.10255e+06,363
0.00062,0,1,3.70549e-322,1.44329e-15,6.10255e+06,363
0.00064,0,1,6.42285e-322,1.33227e-15,6.10255e+06,363
0.00066,0,1,3.31024e-322,1.33227e-15,6.10255e+06,363
0.00068,1.58101e-322,1,6.62048e-322,9.99201e-16,6.10255e+06,363
0.0007,2.47033e-323,1,3.50787e-322,4.44089e-16,6.10255e+06,363
0.00072,0,1,6.66989e-322,6.66134e-16,6.10255e+06,363
0.00074,0,1,4.5454e-322,1.11022e-16,6.10255e+06,363
0.00076,0,1,6.52167e-322,1.11022e-16,6.10255e+06,363
0.00078,0,1,8.54734e-322,1.11022e-16,6.10255e+06,363
0.0008,0,1,1.16599e-321,2.22045e-16,6.10255e+06,363
0.00082,0,1,1.15117e-321,6.66134e-16,6.10255e+06,363
0.00084,0,1,1.13141e-321,7.77156e-16,6.10255e+06,363
0.00086,0,1,1.35868e-321,1.33227e-15,6.10255e+06,363
0.00088,2.47033e-323,1,1.13141e-321,1.22125e-15,6.10255e+06,363
0.0009,0,1,1.36856e-321,1.22125e-15,6.10255e+06,363
0.00092,0,1,1.99603e-321,1.44329e-15,6.10255e+06,363
0.00094,0,1,2.50491e-321,1.44329e-15,6.10255e+06,363
0.00096,0,1,2.54444e-321,1.22125e-15,6.10255e+06,363
0.00098,0,1,2.49009e-321,1.44329e-15,6.10255e+06,363
0.001,0,1,2.50985e-321,1.11022e-15,6.10255e+06,363
0.00102,0,1,2.55926e-321,9.99201e-16,6.10255e+06,363
0.00104,0,1,2.53456e-321,6.66134e-16,6.10255e+06,363
0.00106,0,1,2.56914e-321,5.55112e-16,6.10255e+06,363
0.00108,9.88131e-324,1,2.65313e-321,7.77156e-16,6.10255e+06,363
0.0011,1.23516e-322,1,2.66301e-321,9.99201e-16,6.10255e+06,363
0.00112,1.28457e-322,1,3.07309e-321,9.99201e-16,6.10255e+06,363
0.00114,0,1,3.16696e-321,7.77156e-16,6.10255e+06,363
0.00116,1.63042e-322,1,3.16696e-321,1.11022e-15,6.10255e+06,363
0.00118,0,1,3.19166e-321,1.11022e-15,6.10255e+06,363
0.0012,0,1,3.23613e-321,1.22125e-15,6.10255e+06,363
0.00122,1.38338e-322,1,3.13732e-321,1.11022e-15,6.10255e+06,363
0.00124,0,1,3.24601e-321,8.88178e-16,6.10255e+06,363
0.00126,0,1,3.17684e-321,8.88178e-16,6.10255e+06,363
0.00128,1.5316e-322,1,3.13732e-321,8.88178e-16,6.10255e+06,363
0.0013,0,1,3.24107e-321,9.99201e-16,6.10255e+06,363
0.00132,0,1,3.11261e-321,1.22125e-15,6.10255e+06,363
0.00134,0,1,3.21143e-321,1.55431e-15,6.10255e+06,363
0.00136,0,1,3.11755e-321,1.33227e-15,6.10255e+06,363
0.00138,0,1,3.23119e-321,8.88178e-16,6.10255e+06,363
0.0014,0,1,3.32506e-321,1.22125e-15,6.10255e+06,363
0.00142,0,1,3.10767e-321,7.77156e-16,6.10255e+06,363
0.00144,0,1,3.1966e-321,2.22045e-16,6.10255e+06,363
0.00146,0,1,3.17684e-321,0,6.10255e+06,363
0.00148,1.4822e-322,1,3.21637e-321,2.22045e-16,6.10255e+06,363
0.0015,1.63042e-322,1,3.19166e-321,4.44089e-16,6.10255e+06,363
0.00152,1.4822e-322,1,3.21143e-321,0,6.10255e+06,363
0.00154,0,1,3.34977e-321,0,6.10255e+06,363
0.00156,0,1,3.22625e-321,2.22045e-16,6.10255e+06,363
0.00158,0,1,3.25095e-321,6.66134e-16,6.10255e+06,363
0.0016,1.17094e-321,1,4.04146e-321,5.55112e-16,6.10255e+06,363
0.00162,1.37103e-320,1,3.94264e-321,1.11022e-16,6.10255e+06,363
0.00164,4.40079e-319,1,6.15606e-321,0,6.10255e+06,363
0.00166,1.54065e-317,1,7.69161e-320,5.55112e-16,6.10255e+06,363
0.00168,5.38118e-316,1,2.63471e-318,5.55112e-16,6.10255e+06,363
0.0017,1.86982e-314,1,9.39432e-317,7.77156e-16,6.10255e+06,363
0.00172,6.46283e-313,1,3.33657e-315,7.77156e-16,6.10255e+06,363
0.00174,2.22198e-311,1,1.1788e-313,8.88178e-16,6.10255e+06,363
0.00176,7.59882e-310,1,4.1425e-312,1.22125e-15,6.10255e+06,363
0.00178,2.58484e-308,1,1.44797e-310,8.88178e-16,6.10255e+06,363
0.0018,8.74576e-307,1,5.03414e-309,6.66134e-16,6.10255e+06,363
0.00182,2.94327e-305,1,1.74082e-307,7.77156e-16,6.10255e+06,363
0.00184,9.85207e-304,1,5.98744e-306,8.88178e-16,6.10255e+06,363
0.00186,3.28005e-302,1,2.04822e-304,9.99201e-16,6.10255e+06,363
0.00188,1.08614e-300,1,6.9688e-303,8.88178e-16,6.10255e+06,363
0.0019,3.57713e-299,1,2.35818e-301,7.77156e-16,6.10255e+06,363
0.00192,1.17172e-297,1,7.93645e-300,9.99201e-16,6.10255e+06,363
0.00194,3.81717e-296,1,2.65645e-298,8.88178e-16,6.10255e+06,363
0.00196,1.23676e-294,1,8.84289e-297,8.88178e-16,6.10255e+06,363
0.00198,3.98519e-293,1,2.92752e-295,8.88178e-16,6.10255e+06,363
0.002,1.2771e-291,1,9.63851e-294,5.55112e-16,6.10255e+06,363
0.00202,4.07011e-290,1,3.15587e-292,7.77156e-16,6.10255e+06,363
0.00204,1.28999e-288,1,1.02759e-290,1.88738e-15,6.10255e+06,363
0.00206,7.24727e-288,1,5.8515e-290,1.77636e-15,6.10255e+06,363
0.00208,1.27444e-285,1,1.07146e-287,1.33227e-15,6.10255e+06,363
0.0021,3.97245e-284,1,3.43094e-286,7.77156e-16,6.10255e+06,363
0.00212,1.23132e-282,1,1.09249e-284,8.88178e-16,6.10255e+06,363
0.00214,3.7953e-281,1,3.45924e-283,1.33227e-15,6.10255e+06,363
0.00216,1.16328e-279,1,1.08917e-281,4.44089e-16,6.10255e+06,363
0.00218,3.54545e-278,1,3.41e-280,8.88178e-16,6.10255e+06,363
0.0022,1.0745e-276,1,1.06158e-278,3.33067e-16,6.10255e+06,363
0.00222,3.23801e-275,1,3.2861e-277,1.11022e-16,6.10255e+06,363
0.00224,9.70246e-274,1,1.01143e-275,9.99201e-16,6.10255e+06,363
0.00226,2.89075e-272,1,3.09531e-274,7.77156e-16,6.10255e+06,363
0.00228,8.5636e-271,1,9.41855e-273,4.44089e-16,6.10255e+06,363
0.0023,2.52239e-269,1,2.84949e-271,4.44089e-16,6.10255e+06,363
0.00232,7.38708e-268,1,8.57128e-270,6.66134e-16,6.10255e+06,363
0.00234,2.15094e-266,1,2.56338e-268,5.55112e-16,6.10255e+06,363
0.00236,6.22692e-265,1,7.62187e-267,7.77156e-16,6.10255e+06,363
0.00238,1.79225e-263,1,2.25312e-265,3.33067e-16,6.10255e+06,363
0.0024,5.12862e-262,1,6.62176e-264,7.77156e-16,6.10255e+06,363
0.00242,1.45905e-260,1,1.93474e-262,4.44089e-16,6.10255e+06,363
0.00244,4.12664e-259,1,5.61983e-261,6.66134e-16,6.10255e+06,363
0.00246,1.16032e-257,1,1.62281e-259,9.99201e-16,6.10255e+06,363
0.00248,3.24341e-256,1,4.65854e-258,7.77156e-16,6.10255e+06,363
0.0025,9.01288e-255,1,1.32942e-256,6.66134e-16,6.10255e+06,363
0.00252,2.48975e-253,1,3.77133e-255,1.11022e-16,6.10255e+06,363
0.00254,6.83706e-252,1,1.06351e-253,6.66134e-16,6.10255e+06,363
0.00256,1.86637e-250,1,2.98123e-252,2.22045e-16,6.10255e+06,363
0.00258,5.06447e-249,1,8.30708e-251,0,6.10255e+06,363
0.0026,1.36606e-247,1,2.30087e-249,1.11022e-16,6.10255e+06,363
0.00262,3.66264e-246,1,6.33459e-248,0,6.10255e+06,363
0.00264,9.76121e-245,1,1.73349e-246,2.22045e-16,6.10255e+06,363
0.00266,2.58576e-243,1,4.71508e-245,5.55112e-16,6.10255e+06,363
0.00268,6.80834e-242,1,1.27473e-243,3.33067e-16,6.10255e+06,363
0.0027,1.78178e-240,1,3.42529e-242,0,6.10255e+06,363
0.00272,4.63465e-239,1,9.14786e-241,0,6.10255e+06,363
0.00274,1.19819e-237,1,2.42816e-239,1.11022e-16,6.10255e+06,363
0.00276,3.0787e-236,1,6.40563e-238,6.66134e-16,6.10255e+06,363
0.00278,7.86208e-235,1,1.67944e-236,1.33227e-15,6.10255e+06,363
0.0028,1.99538e-233,1,4.37601e-235,9.99201e-16,6.10255e+06,363
0.00282,5.03299e-232,1,1.13317e-233,3.33067e-16,6.10255e+06,363
0.00284,1.26162e-230,1,2.9161e-232,3.33067e-16,6.10255e+06,363
0.00286,3.14285e-229,1,7.45756e-231,2.22045e-16,6.10255e+06,363
0.00288,7.78046e-228,1,1.89525e-229,0,6.10255e+06,363
0.0029,1.9141e-226,1,4.78637e-228,0,6.10255e+06,363
0.00292,4.67941e-225,1,1.20117e-226,0,6.10255e+06,363
0.00294,1.13678e-223,1,2.99539e-225,2.22045e-16,6.10255e+06,363
0.00296,2.7442e-222,1,7.4224e-224,2.22045e-16,6.10255e+06,363
0.00298,6.58259e-221,1,1.82755e-222,9.99201e-16,6.10255e+06,363
0.003,1.56896e-219,1,4.47114e-221,1.11022e-15,6.10255e+06,363
0.00302,3.71578e-218,1,1.08688e-219,8.88178e-16,6.10255e+06,363
0.00304,8.74391e-217,1,2.62515e-218,6.66134e-16,6.10255e+06,363
0.00306,2.04441e-215,1,6.29974e-217,3.33067e-16,6.10255e+06,363
0.00308,4.74928e-214,1,1.50203e-215,7.77156e-16,6.10255e+06,363
0.0031,1.09617e-212,1,3.55809e-214,9.99201e-16,6.10255e+06,363
0.00312,2.51366e-211,1,8.37382e-213,3.33067e-16,6.10255e+06,363
0.00314,5.72673e-210,1,1.95791e-211,1.11022e-15,6.10255e+06,363
0.00316,1.29619e-208,1,4.54791e-210,9.99201e-16,6.10255e+06,363
0.00318,2.91462e-207,1,1.04948e-208,1.11022e-15,6.10255e+06,363
0.0032,6.51087e-206,1,2.40586e-207,7.77156e-16,6.10255e+06,363
0.00322,1.44487e-204,1,5.47884e-206,1.22125e-15,6.10255e+06,363
0.00324,3.18525e-203,1,1.23943e-204,9.99201e-16,6.10255e+06,363
0.00326,6.97545e-202,1,2.78522e-203,8.88178e-16,6.10255e+06,363
0.00328,1.51742e-200,1,6.21715e-202,1.11022e-15,6.10255e+06,363
0.0033,3.27895e-199,1,1.37851e-200,1.33227e-15,6.10255e+06,363
0.00332,7.03799e-198,1,3.03599e-199,1.22125e-15,6.10255e+06,363
0.00334,1.50051e-196,1,6.64138e-198,1.22125e-15,6.10255e+06,363
0.00336,3.17757e-195,1,1.44302e-196,1.44329e-15,6.10255e+06,363
0.00338,6.68354e-194,1,3.11409e-195,6.66134e-16,6.10255e+06,363
0.0034,1.39625e-192,1,6.67459e-194,4.44089e-16,6.10255e+06,363
0.00342,2.89707e-191,1,1.42084e-192,1.11022e-16,6.10255e+06,363
0.00344,5.97005e-190,1,3.00385e-191,3.33067e-16,6.10255e+06,363
0.00346,1.22184e-188,1,6.30694e-190,3.33067e-16,6.10255e+06,363
0.00348,2.48344e-187,1,1.31508e-188,0,6.10255e+06,363
0.0035,5.01291e-186,1,2.72314e-187,5.55112e-16,6.10255e+06,363
0.00352,1.00487e-184,1,5.59967e-186,8.88178e-16,6.10255e+06,363
0.00354,2.00035e-183,1,1.14345e-184,8.88178e-16,6.10255e+06,363
0.00356,3.95424e-182,1,2.3186e-183,4.44089e-16,6.10255e+06,363
0.00358,7.76202e-181,1,4.66847e-182,9.99201e-16,6.10255e+06,363
0.0036,1.51296e-179,1,9.33372e-181,1.11022e-16,6.10255e+06,363
0.00362,2.92829e-178,1,1.85292e-179,8.88178e-16,6.10255e+06,363
0.00364,5.62756e-177,1,3.65229e-178,5.55112e-16,6.10255e+06,363
0.00366,1.07383e-175,1,7.14783e-177,6.66134e-16,6.10255e+06,363
0.00368,2.03447e-174,1,1.3889e-175,3.33067e-16,6.10255e+06,363
0.0037,3.82697e-173,1,2.67942e-174,5.55112e-16,6.10255e+06,363
0.00372,7.14717e-172,1,5.1319e-173,3.33067e-16,6.10255e+06,363
0.00374,1.32519e-170,1,9.75816e-172,6.66134e-16,6.10255e+06,363
0.00376,2.43937e-169,1,1.84204e-170,4.44089e-16,6.10255e+06,363
0.00378,4.45779e-168,1,3.45194e-169,1.44329e-15,6.10255e+06,363
0.0038,8.08709e-167,1,6.42162e-168,6.66134e-16,6.10255e+06,363
0.00382,1.45641e-165,1,1.18586e-166,5.55112e-16,6.10255e+06,363
0.00384,2.60367e-164,1,2.1738e-165,0,6.10255e+06,363
0.00386,4.62043e-163,1,3.95538e-164,5.55112e-16,6.10255e+06,363
0.00388,8.13886e-162,1,7.14379e-163,4.44089e-16,6.10255e+06,363
0.0039,1.42304e-160,1,1.28065e-161,3.33067e-16,6.10255e+06,363
0.00392,2.46963e-159,1,2.27865e-160,4.44089e-16,6.10255e+06,363
0.00394,4.25396e-158,1,4.02403e-159,5.55112e-16,6.10255e+06,363
0.00396,7.27264e-157,1,7.05291e-158,4.44089e-16,6.10255e+06,363
0.00398,1.234e-155,1,1.22683e-156,1.22125e-15,6.10255e+06,363
0.004,2.07801e-154,1,2.11788e-155,1.11022e-15,6.10255e+06,363
0.00402,3.47281e-153,1,3.62831e-154,4.44089e-16,6.10255e+06,363
0.00404,5.7597e-152,1,6.1685e-153,6.66134e-16,6.10255e+06,363
0.00406,9.47966e-151,1,1.04067e-151,4.44089e-16,6.10255e+06,363
0.00408,1.54827e-149,1,1.7422e-150,1.11022e-16,6.10255e+06,363
0.0041,2.50927e-148,1,2.8941e-149,6.66134e-16,6.10255e+06,363
0.00412,1.00725e-147,1,1.17613e-148,4.44089e-16,6.10255e+06,363
0.00414,6.43935e-146,1,7.80186e-147,2.22045e-16,6.10255e+06,363
0.00416,1.01955e-144,1,1.26602e-145,0,6.10255e+06,363
0.00418,1.60166e-143,1,2.03827e-144,3.33067e-16,6.10255e+06,363
0.0042,2.49641e-142,1,3.25575e-143,3.33067e-16,6.10255e+06,363
0.00422,3.86036e-141,1,5.15935e-142,4.44089e-16,6.10255e+06,363
0.00424,5.92236e-140,1,8.1111e-141,3.33067e-16,6.10255e+06,363
0.00426,9.0137e-139,1,1.265e-139,9.99201e-16,6.10255e+06,363
0.00428,1.36094e-137,1,1.9571e-138,4.44089e-16,6.10255e+06,363
0.0043,2.03839e-136,1,3.00355e-137,5.55112e-16,6.10255e+06,363
0.00432,3.02855e-135,1,4.57237e-136,9.99201e-16,6.10255e+06,363
0.00434,4.46342e-134,1,6.90427e-135,7.77156e-16,6.10255e+06,363
0.00436,6.52485e-133,1,1.03407e-133,7.77156e-16,6.10255e+06,363
0.00438,9.46085e-132,1,1.53611e-132,1.22125e-15,6.10255e+06,363
0.0044,1.3606e-130,1,2.26319e-131,5.55112e-16,6.10255e+06,363
0.00442,1.9407e-129,1,3.30697e-130,1.11022e-15,6.10255e+06,363
0.00444,2.74536e-128,1,4.79223e-129,1.11022e-15,6.10255e+06,363
0.00446,1.02937e-127,1,1.81859e-128,8.88178e-16,6.10255e+06,363
0.00448,5.35867e-126,1,9.81478e-127,5.55112e-16,6.10255e+06,363
0.0045,7.39341e-125,1,1.38703e-125,8.88178e-16,6.10255e+06,363
0.00452,1.01154e-123,1,1.9437e-124,1.55431e-15,6.10255e+06,363
0.00454,1.37233e-122,1,2.70079e-123,8.88178e-16,6.10255e+06,363
0.00456,1.84611e-121,1,3.72098e-122,1.55431e-15,6.10255e+06,363
0.00458,2.46241e-120,1,5.08292e-121,7.77156e-16,6.10255e+06,363
0.0046,3.25651e-119,1,6.88402e-120,9.99201e-16,6.10255e+06,363
0.00462,4.26991e-118,1,9.24331e-119,8.88178e-16,6.10255e+06,363
0.00464,5.55063e-117,1,1.23042e-117,1.44329e-15,6.10255e+06,363
0.00466,7.15333e-116,1,1.6237e-116,8.88178e-16,6.10255e+06,363
0.00468,9.13903e-115,1,2.12405e-115,6.66134e-16,6.10255e+06,363
0.0047,1.15745e-113,1,2.75433e-114,3.33067e-16,6.10255e+06,363
0.00472,1.45309e-112,1,3.54031e-113,0,6.10255e+06,363
0.00474,1.80827e-111,1,4.51051e-112,8.88178e-16,6.10255e+06,363
0.00476,2.23044e-110,1,5.69574e-111,9.99201e-16,6.10255e+06,363
0.00478,2.72684e-109,1,7.12851e-110,9.99201e-16,6.10255e+06,363
0.0048,3.30411e-108,1,8.84208e-109,4.44089e-16,6.10255e+06,363
0.00482,3.96787e-107,1,1.08692e-107,0,6.10255e+06,363
0.00484,4.72227e-106,1,1.32408e-106,0,6.10255e+06,363
0.00486,5.5695e-105,1,1.5984e-105,0,6.10255e+06,363
0.00488,6.50934e-104,1,1.91202e-104,0,6.10255e+06,363
0.0049,7.53867e-103,1,2.26629e-103,3.33067e-16,6.10255e+06,363
0.00492,8.6511e-102,1,2.66158e-102,4.44089e-16,6.10255e+06,363
0.00494,9.83669e-101,1,3.09703e-101,3.33067e-16,6.10255e+06,363
0.00496,1.10818e-99,1,3.57038e-100,5.55112e-16,6.10255e+06,363
0.00498,1.2369e-98,1,4.07781e-99,5.55112e-16,6.10255e+06,363
0.005,1.36774e-97,1,4.61386e-98,4.44089e-16,6.10255e+06,363
0.00502,1.4983e-96,1,5.1714e-97,6.66134e-16,6.10255e+06,363
0.00504,1.62593e-95,1,5.74168e-96,2.22045e-16,6.10255e+06,363
0.00506,1.7478e-94,1,6.31447e-95,2.22045e-16,6.10255e+06,363
0.00508,1.86103e-93,1,6.87833e-94,2.22045e-16,6.10255e+06,363
0.0051,1.96273e-92,1,7.42091e-93,0,6.10255e+06,363
0.00512,6.35115e-92,1,2.4287e-92,0,6.10255e+06,363
0.00514,2.12103e-90,1,8.39091e-91,1.11022e-16,6.10255e+06,363
0.00516,2.17311e-89,1,8.79319e-90,2.22045e-16,6.10255e+06,363
0.00518,2.20489e-88,1,9.12496e-89,0,6.10255e+06,363
0.0052,2.21534e-87,1,9.37651e-88,1.11022e-16,6.10255e+06,363
0.00522,2.20405e-86,1,9.54018e-87,2.22045e-16,6.10255e+06,363
0.00524,2.17124e-85,1,9.61071e-86,4.44089e-16,6.10255e+06,363
0.00526,2.11777e-84,1,9.58555e-85,1.11022e-16,6.10255e+06,363
0.00528,2.0451e-83,1,9.46497e-84,1.11022e-16,6.10255e+06,363
0.0053,1.9552e-82,1,9.25209e-83,2.22045e-16,6.10255e+06,363
0.00532,1.85049e-81,1,8.95277e-82,2.22045e-16,6.10255e+06,363
0.00534,1.73374e-80,1,8.5753e-81,2.22045e-16,6.10255e+06,363
0.00536,1.60788e-79,1,8.13005e-80,0,6.10255e+06,363
0.00538,1.47597e-78,1,7.62897e-79,7.77156e-16,6.10255e+06,363
0.0054,1.34101e-77,1,7.08507e-78,5.55112e-16,6.10255e+06,363
0.00542,1.20585e-76,1,6.51185e-77,3.33067e-16,6.10255e+06,363
0.00544,1.07309e-75,1,5.92276e-76,2.22045e-16,6.10255e+06,363
0.00546,9.4502e-75,1,5.33064e-75,5.55112e-16,6.10255e+06,363
0.00548,8.23535e-74,1,4.74728e-74,7.77156e-16,6.10255e+06,363
0.0055,7.10126e-73,1,4.18309e-73,1.11022e-16,6.10255e+06,363
0.00552,6.05866e-72,1,3.64679e-72,0,6.10255e+06,363
0.00554,5.11424e-71,1,3.1453e-71,0,6.10255e+06,363
0.00556,4.27095e-70,1,2.68364e-70,0,6.10255e+06,363
0.00558,3.52843e-69,1,2.26503e-69,0,6.10255e+06,363
0.0056,2.88353e-68,1,1.89097e-68,0,6.10255e+06,363
0.00562,2.33094e-67,1,1.56145e-67,0,6.10255e+06,363
0.00564,1.86369e-66,1,1.27521e-66,0,6.10255e+06,363
0.00566,1.47376e-65,1,1.02996e-65,0,6.10255e+06,363
0.00568,1.15256e-64,1,8.22638e-65,0,6.10255e+06,363
0.0057,8.91368e-64,1,6.49722e-64,0,6.10255e+06,363
0.00572,6.8168e-63,1,5.07396e-63,0,6.10255e+06,363
0.00574,5.15473e-62,1,3.91778e-62,0,6.10255e+06,363
0.00576,3.85396e-61,1,2.99074e-61,0,6.10255e+06,363
0.00578,2.84875e-60,1,2.25701e-60,0,6.10255e+06,363
0.0058,2.08172e-59,1,1.68375e-59,0,6.10255e+06,363
0.00582,1.50376e-58,1,1.24159e-58,0,6.10255e+06,363
0.00584,1.07374e-57,1,9.04927e-58,2.22045e-16,6.10255e+06,363
0.00586,7.57793e-57,1,6.51852e-57,2.22045e-16,6.10255e+06,363
0.00588,5.28574e-56,1,4.6404e-56,1.55431e-15,6.10255e+06,363
0.0059,3.64364e-55,1,3.2644e-55,6.66134e-16,6.10255e+06,363
0.00592,2.48204e-54,1,2.26915e-54,6.66134e-16,6.10255e+06,363
0.00594,1.67069e-53,1,1.55849e-53,8.88178e-16,6.10255e+06,363
0.00596,1.11113e-52,1,1.05753e-52,9.99201e-16,6.10255e+06,363
0.00598,7.30105e-52,1,7.08923e-52,9.99201e-16,6.10255e+06,363
0.006,4.73943e-51,1,4.69453e-51,7.77156e-16,6.10255e+06,363
0.00602,3.03918e-50,1,3.07071e-50,3.33067e-16,6.10255e+06,363
0.00604,1.92505e-49,1,1.98384e-49,1.11022e-15,6.10255e+06,363
0.00606,1.20435e-48,1,1.2658e-48,4.44089e-16,6.10255e+06,363
0.00608,7.44137e-48,1,7.97582e-48,4.44089e-16,6.10255e+06,363
0.0061,4.54058e-47,1,4.96258e-47,0,6.10255e+06,363
0.00612,2.73586e-46,1,3.04879e-46,8.88178e-16,6.10255e+06,363
0.00614,1.62766e-45,1,1.84926e-45,2.22045e-16,6.10255e+06,363
0.00616,9.56072e-45,1,1.10735e-44,3.33067e-16,6.10255e+06,363
0.00618,5.54417e-44,1,6.54569e-44,3.33067e-16,6.10255e+06,363
0.0062,3.1737e-43,1,3.81918e-43,4.44089e-16,6.10255e+06,363
0.00622,1.79325e-42,1,2.19934e-42,1.22125e-15,6.10255e+06,363
0.00624,1.00007e-41,1,1.24993e-41,1.11022e-15,6.10255e+06,363
0.00626,5.50414e-41,1,7.0099e-41,5.55112e-16,6.10255e+06,363
0.00628,2.98941e-40,1,3.87911e-40,5.55112e-16,6.10255e+06,363
0.0063,1.60206e-39,1,2.11791e-39,0,6.10255e+06,363
0.00632,8.47084e-39,1,1.14077e-38,1.11022e-16,6.10255e+06,363
0.00634,4.41868e-38,1,6.06124e-38,1.33227e-15,6.10255e+06,363
0.00636,2.2737e-37,1,3.17656e-37,0,6.10255e+06,363
0.00638,1.15401e-36,1,1.64189e-36,7.77156e-16,6.10255e+06,363
0.0064,5.77664e-36,1,8.36906e-36,6.66134e-16,6.10255e+06,363
0.00642,2.8516e-35,1,4.20641e-35,4.44089e-16,6.10255e+06,363
0.00644,1.38805e-34,1,2.08451e-34,0,6.10255e+06,363
0.00646,6.66166e-34,1,1.01837e-33,0,6.10255e+06,363
0.00648,3.1519e-33,1,4.90431e-33,0,6.10255e+06,363
0.0065,1.47004e-32,1,2.32792e-32,0,6.10255e+06,363
0.00652,6.7579e-32,1,1.08901e-31,0,6.10255e+06,363
0.00654,3.06176e-31,1,5.02022e-31,0,6.10255e+06,363
0.00656,1.36699e-30,1,2.28033e-30,0,6.10255e+06,363
0.00658,6.01376e-30,1,1.02049e-29,0,6.10255e+06,363
0.0066,2.6066e-29,1,4.49899e-29,0,6.10255e+06,363
0.00662,1.11303e-28,1,1.95376e-28,0,6.10255e+06,363
0.00664,4.68164e-28,1,8.35669e-28,0,6.10255e+06,363
0.00666,1.93959e-27,1,3.52015e-27,0,6.10255e+06,363
0.00668,7.91403e-27,1,1.4602e-26,0,6.10255e+06,363
0.0067,3.17997e-26,1,5.9641e-26,4.44089e-16,6.10255e+06,363
0.00672,1.25819e-25,1,2.39839e-25,2.22045e-16,6.10255e+06,363
0.00674,4.9015e-25,1,9.49502e-25,0,6.10255e+06,363
0.00676,1.87989e-24,1,3.70029e-24,0,6.10255e+06,363
0.00678,7.09764e-24,1,1.41938e-23,0,6.10255e+06,363
0.0068,2.63774e-23,1,5.35847e-23,0,6.10255e+06,363
0.00682,9.64797e-23,1,1.99071e-22,0,6.10255e+06,363
0.00684,3.47269e-22,1,7.27687e-22,0,6.10255e+06,363
0.00686,1.22984e-21,1,2.61682e-21,0,6.10255e+06,363
0.00688,4.28454e-21,1,9.2557e-21,0,6.10255e+06,363
0.0069,1.46801e-20,1,3.21923e-20,1.11022e-16,6.10255e+06,363
0.00692,4.9457e-20,1,1.10077e-19,0,6.10255e+06,363
0.00694,1.638e-19,1,3.69967e-19,1.33227e-15,6.10255e+06,363
0.00696,5.33212e-19,1,1.22194e-18,1.11022e-15,6.10255e+06,363
0.00698,1.70625e-18,1,3.96667e-18,0,6.10255e+06,363
0.007,5.36661e-18,1,1.26545e-17,1.11022e-16,6.10255e+06,363
0.00702,1.65972e-17,1,3.969e-17,3.33067e-16,6.10255e+06,363
0.00704,5.05079e-17,1,1.22473e-16,0,6.10255e+06,363
0.00706,1.52813e-16,1,3.75784e-16,1.22125e-15,6.10255e+06,363
0.00708,4.78238e-16,1,1.19416e-15,8.21565e-15,6.10255e+06,363
0.0071,1.58945e-15,1,4.03858e-15,3.68594e-14,6.10255e+06,363
0.00712,5.58773e-15,1,1.44787e-14,1.32006e-13,6.10255e+06,363
0.00714,1.99502e-14,1,5.27706e-14,4.70068e-13,6.10255e+06,363
0.00716,7.02455e-14,1,1.8968e-13,1.62248e-12,6.10255e+06,363.001
0.00718,2.41281e-13,1,6.64863e-13,5.43388e-12,6.10255e+06,363.001
0.0072,8.05556e-13,1,2.26413e-12,1.76852e-11,6.10255e+06,363.002
0.00722,2.61259e-12,1,7.48609e-12,5.5954e-11,6.10255e+06,363.004
0.00724,8.23e-12,1,2.40293e-11,1.72068e-10,6.10255e+06,363.008
0.00726,2.51797e-11,1,7.48737e-11,5.14245e-10,6.10255e+06,363.014
0.00728,7.48173e-11,1,2.26463e-10,1.49355e-09,6.10255e+06,363.024
0.0073,2.1589e-10,1,6.64853e-10,4.21536e-09,6.10255e+06,363.041
0.00732,6.0495e-10,1,1.89449e-09,1.1561e-08,6.10255e+06,363.069
0.00734,1.64603e-09,1,5.2393e-09,3.08089e-08,6.10255e+06,363.115
0.00736,4.34868e-09,1,1.40618e-08,7.97723e-08,6.10255e+06,363.19
0.00738,1.11542e-08,1,3.66235e-08,2.00673e-07,6.10255e+06,363.308
0.0074,2.7773e-08,0.999999,9.2551e-08,4.90389e-07,6.10255e+06,363.492
0.00742,6.71186e-08,0.999999,2.26903e-07,1.16398e-06,6.10255e+06,363.775
0.00744,1.57397e-07,0.999997,5.39575e-07,2.683e-06,6.10255e+06,364.204
0.00746,3.58053e-07,0.999992,1.24422e-06,6.00416e-06,6.10255e+06,364.841
0.00748,7.89804e-07,0.999983,2.7811e-06,1.30405e-05,6.10255e+06,365.771
0.0075,1.68843e-06,0.999965,6.02304e-06,2.74759e-05,6.10255e+06,367.106
0.00752,3.49587e-06,0.999928,1.26313e-05,5.613e-05,6.10255e+06,368.985
0.00754,7.0049e-06,0.999856,2.56342e-05,0.000111108,6.10255e+06,371.575
0.00756,1.35724e-05,0.999723,5.03059e-05,0.000212961,6.10255e+06,375.066
0.00758,2.54065e-05,0.999484,9.53939e-05,0.000394958,6.10255e+06,379.662
0.0076,4.59129e-05,0.999071,0.000174681,0.000708325,6.10255e+06,385.565
0.00762,8.00556e-05,0.998383,0.000308751,0.0012279,6.10255e+06,392.952
0.00764,0.000134662,0.997281,0.000526707,0.00205732,6.10255e+06,401.957
0.00766,0.000218595,0.995581,0.00086753,0.00333273,6.10255e+06,412.656
0.00768,0.000342736,0.993052,0.00138082,0.00522416,6.10255e+06,425.064
0.0077,0.000519792,0.989419,0.00212681,0.00793455,6.10255e+06,439.135
0.00772,0.000763988,0.984363,0.00317579,0.0116969,6.10255e+06,454.783
0.00774,0.00109073,0.977532,0.00460725,0.0167704,6.10255e+06,471.898
0.00776,0.00151637,0.968537,0.00650902,0.0234376,6.10255e+06,490.36
0.00778,0.00205803,0.956964,0.00897667,0.032001,6.10255e+06,510.052
0.0078,0.0027336,0.942371,0.0121131,0.0427821,6.10255e+06,530.864
0.00782,0.00356176,0.924292,0.0160281,0.0561183,6.10255e+06,552.687
0.00784,0.00456185,0.902241,0.0208371,0.0723598,6.10255e+06,575.406
0.00786,0.00513253,0.889572,0.0236141,0.0816809,6.10255e+06,587.059
0.00788,0.00715637,0.844265,0.0336126,0.114966,6.10255e+06,622.947
0.0079,0.00794251,0.826541,0.0375478,0.127968,6.10255e+06,635.13
0.00792,0.0106615,0.764871,0.0513234,0.173144,6.10255e+06,671.851
0.00794,0.0127841,0.716446,0.0622134,0.208556,6.10255e+06,696.024
0.00796,0.0151507,0.66226,0.0744578,0.248131,6.10255e+06,719.45
0.00798,0.017741,0.602798,0.08795,0.291511,6.10255e+06,741.658
0.008,0.0205144,0.539012,0.10247,0.338004,6.10255e+06,762.194
0.00802,0.0234083,0.47237,0.117674,0.386548,6.10255e+06,780.687
0.00804,0.0263398,0.404814,0.133099,0.435747,6.10255e+06,796.911
0.00806,0.0292121,0.338602,0.148209,0.483977,6.10255e+06,810.835
0.00808,0.0319269,0.27604,0.162455,0.529578,6.10255e+06,822.61
0.0081,0.0343979,0.219157,0.175356,0.571088,6.10255e+06,832.53
0.00812,0.0365632,0.169418,0.186573,0.607446,6.10255e+06,840.953
0.00814,0.038392,0.127564,0.19594,0.638104,6.10255e+06,848.223
0.00816,0.039884,0.0936213,0.203463,0.663031,6.10255e+06,854.625
0.00818,0.0410632,0.067032,0.209288,0.682617,6.10255e+06,860.358
0.0082,0.0415475,0.0562129,0.211632,0.690607,6.10255e+06,863.014
0.00822,0.0426477,0.0320228,0.216788,0.708541,6.10255e+06,870.25
0.00824,0.0429164,0.0262497,0.217991,0.712843,6.10255e+06,872.433
0.00826,0.043504,0.0139943,0.220476,0.722026,6.10255e+06,878.331
0.00828,0.0437588,0.00895925,0.221446,0.725836,6.10255e+06,881.733
0.0083,0.0439382,0.00561701,0.222052,0.728392,6.10255e+06,884.727
0.00832,0.044064,0.00344951,0.222413,0.730073,6.10255e+06,887.334
0.00834,0.0441522,0.00207557,0.222614,0.731158,6.10255e+06,889.58
0.00836,0.0442145,0.00122433,0.222713,0.731848,6.10255e+06,891.492
0.00838,0.0442584,0.000719609,0.222751,0.732271,6.10255e+06,893.09
0.0084,0.04429,0.000423491,0.222755,0.732532,6.10255e+06,894.415
0.00842,0.0443146,0.00023554,0.222744,0.732705,6.10255e+06,895.54
0.00844,0.0443332,0.000127691,0.222726,0.732813,6.10255e+06,896.466
0.00846,0.0443475,6.7764e-05,0.222705,0.73288,6.10255e+06,897.221
0.00848,0.0443586,3.52131e-05,0.222685,0.732922,6.10255e+06,897.83
0.0085,0.0443674,1.79159e-05,0.222667,0.732948,6.10255e+06,898.318
0.00852,0.0443743,8.92427e-06,0.222652,0.732965,6.10255e+06,898.706
0.00854,0.0443773,6.2486e-06,0.222645,0.732971,6.10255e+06,898.868
0.00856,0.0443843,2.07755e-06,0.22263,0.732984,6.10255e+06,899.25
0.00858,0.0443861,1.42401e-06,0.222626,0.732987,6.10255e+06,899.349
0.0086,0.0443905,4.44107e-07,0.222616,0.732993,6.10255e+06,899.578
0.00862,0.0443927,1.98852e-07,0.222612,0.732995,6.10255e+06,899.687
0.00864,0.0443944,8.71514e-08,0.222609,0.732997,6.10255e+06,899.769
0.00866,0.0443958,3.73865e-08,0.222606,0.732998,6.10255e+06,899.831
0.00868,0.0443968,1.5698e-08,0.222605,0.732999,6.10255e+06,899.877
0.0087,0.0443976,6.45155e-09,0.222603,0.732999,6.10255e+06,899.912
0.00872,0.0443982,2.59518e-09,0.222602,0.733,6.10255e+06,899.937
0.00874,0.0443987,1.02177e-09,0.222602,0.733,6.10255e+06,899.955
0.00876,0.044399,3.93752e-10,0.222601,0.733,6.10255e+06,899.968
0.00878,0.0443993,1.48511e-10,0.222601,0.733,6.10255e+06,899.978
0.0088,0.0443995,5.48182e-11,0.222601,0.733,6.10255e+06,899.985
0.00882,0.0443996,1.97985e-11,0.2226,0.733,6.10255e+06,899.989
0.00884,0.0443997,7.24322e-12,0.2226,0.733,6.10255e+06,899.993
0.00886,0.0443998,2.86859e-12,0.2226,0.733,6.10255e+06,899.995
0.00888,0.0443998,1.68058e-12,0.2226,0.733,6.10255e+06,899.996
0.0089,0.0443999,3.24731e-13,0.2226,0.733,6.10255e+06,899.998
0.00892,0.0443999,1.85627e-13,0.2226,0.733,6.10255e+06,899.998
0.00894,0.0444,3.36837e-14,0.2226,0.733,6.10255e+06,899.999
0.00896,0.0444,1.06e-14,0.2226,0.733,6.10255e+06,899.999
0.00898,0.0444,3.33823e-15,0.2226,0.733,6.10255e+06,900
0.009,0.0444,1.08211e-15,0.2226,0.733,6.10255e+06,900
0.00902,0.0444,3.68863e-16,0.2226,0.733,6.10255e+06,900
0.00904,0.0444,1.30623e-16,0.2226,0.733,6.10255e+06,900
0.00906,0.0444,4.68938e-17,0.2226,0.733,6.10255e+06,900
0.00908,0.0444,1.68052e-17,0.2226,0.733,6.10255e+06,900
0.0091,0.0444,5.96998e-18,0.2226,0.733,6.10255e+06,900
0.00912,0.0444,2.09652e-18,0.2226,0.733,6.10255e+06,900
0.00914,0.0444,7.27073e-19,0.2226,0.733,6.10255e+06,900
0.00916,0.0444,2.48923e-19,0.2226,0.733,6.10255e+06,900
0.00918,0.0444,8.4126e-20,0.2226,0.733,6.10255e+06,900
0.0092,0.0444,2.80661e-20,0.2226,0.733,6.10255e+06,900
0.00922,0.0444,1.61329e-20,0.2226,0.733,6.10255e+06,900
0.00924,0.0444,3.00579e-21,0.2226,0.733,6.10255e+06,900
0.00926,0.0444,9.65041e-22,0.2226,0.733,6.10255e+06,900
0.00928,0.0444,3.05946e-22,0.2226,0.733,6.10255e+06,900
0.0093,0.0444,9.57825e-23,0.2226,0.733,6.10255e+06,900
0.00932,0.0444,2.96145e-23,0.2226,0.733,6.10255e+06,900
0.00934,0.0444,9.04339e-24,0.2226,0.733,6.10255e+06,900
0.00936,0.0444,2.72771e-24,0.2226,0.733,6.10255e+06,900
0.00938,0.0444,8.12717e-25,0.2226,0.733,6.10255e+06,900
0.0094,0.0444,2.39212e-25,0.2226,0.733,6.10255e+06,900
0.00942,0.0444,6.95605e-26,0.2226,0.733,6.10255e+06,900
0.00944,0.0444,1.99851e-26,0.2226,0.733,6.10255e+06,900
0.00946,0.0444,5.67346e-27,0.2226,0.733,6.10255e+06,900
0.00948,0.0444,1.59153e-27,0.2226,0.733,6.10255e+06,900
0.0095,0.0444,4.41203e-28,0.2226,0.733,6.10255e+06,900
0.00952,0.0444,1.20878e-28,0.2226,0.733,6.10255e+06,900
0.00954,0.0444,3.27318e-29,0.2226,0.733,6.10255e+06,900
0.00956,0.0444,1.69584e-29,0.2226,0.733,6.10255e+06,900
0.00958,0.0444,2.3178e-30,0.2226,0.733,6.10255e+06,900
0.0096,0.0444,6.06197e-31,0.2226,0.733,6.10255e+06,900
0.00962,0.0444,1.5674e-31,0.2226,0.733,6.10255e+06,900
0.00964,0.0444,4.00685e-32,0.2226,0.733,6.10255e+06,900
0.00966,0.0444,1.01277e-32,0.2226,0.733,6.10255e+06,900
0.00968,0.0444,2.53119e-33,0.2226,0.733,6.10255e+06,900
0.0097,0.0444,6.25573e-34,0.2226,0.733,6.10255e+06,900
0.00972,0.0444,1.52895e-34,0.2226,0.733,6.10255e+06,900
0.00974,0.0444,3.69573e-35,0.2226,0.733,6.10255e+06,900
0.00976,0.0444,8.83532e-36,0.2226,0.733,6.10255e+06,900
0.00978,0.0444,2.08923e-36,0.2226,0.733,6.10255e+06,900
0.0098,0.0444,4.8867e-37,0.2226,0.733,6.10255e+06,900
0.00982,0.0444,1.13067e-37,0.2226,0.733,6.10255e+06,900
0.00984,0.0444,2.58806e-38,0.2226,0.733,6.10255e+06,900
0.00986,0.0444,5.86063e-39,0.2226,0.733,6.10255e+06,900
0.00988,0.0444,1.31294e-39,0.2226,0.733,6.10255e+06,900
0.0099,0.0444,6.189e-40,0.2226,0.733,6.10255e+06,900
0.00992,0.0444,6.36721e-41,0.2226,0.733,6.10255e+06,900
0.00994,0.0444,1.36779e-41,0.2226,0.733,6.10255e+06,900
0.00996,0.0444,2.7946e-42,0.2226,0.733,6.10255e+06,900
0.00998,0.0444,4.50176e-43,0.2226,0.733,6.10255e+06,900
0.01,0.0444,1.0793e-43,0.2226,0.733,6.10255e+06,900
