/*--------------------------------*- C++ -*----------------------------------*\
| =========                 |                                                 |
| \\      /  F ield         | OpenFOAM: The Open Source CFD Toolbox           |
|  \\    /   O peration     | Version:  4.x                                   |
|   \\  /    A nd           | Web:      www.OpenFOAM.org                      |
|    \\/     M anipulation  |                                                 |
\*---------------------------------------------------------------------------*/
FoamFile
{
    version     2.0;
    format      ascii;
    class       volScalarField;
    location    "0";
    object      H;
}
// * * * * * * * * * * * * * * * * * * * * * * * * * * * * * * * * * * * * * //

dimensions      [0 0 0 0 0 0 0];

internalField   nonuniform List<scalar> 
500
(
3.29718e-23
3.84241e-23
4.38764e-23
5.14748e-23
6.14961e-23
7.15175e-23
8.53703e-23
1.04111e-22
1.22853e-22
1.4827e-22
1.83329e-22
2.18389e-22
2.65009e-22
3.30588e-22
3.96167e-22
4.81638e-22
6.04297e-22
7.26957e-22
8.83585e-22
1.113e-21
1.34242e-21
1.62932e-21
2.0584e-21
2.48749e-21
3.01277e-21
3.8153e-21
4.61784e-21
5.57911e-21
7.08013e-21
8.58114e-21
1.03395e-20
1.31469e-20
1.59543e-20
1.9169e-20
2.442e-20
2.96709e-20
3.55451e-20
4.53667e-20
5.51883e-20
6.59168e-20
8.42884e-20
1.0266e-19
1.22243e-19
1.56611e-19
1.90978e-19
2.26706e-19
2.91005e-19
3.55305e-19
4.20454e-19
5.40785e-19
6.61116e-19
7.81447e-19
1.00514e-18
1.23042e-18
1.4557e-18
1.86882e-18
2.29088e-18
2.71294e-18
3.47662e-18
4.2683e-18
5.05998e-18
6.47411e-18
7.96209e-18
9.45007e-18
1.20765e-17
1.48827e-17
1.76889e-17
2.2592e-17
2.79145e-17
3.3237e-17
4.24682e-17
5.26582e-17
6.28482e-17
8.04695e-17
1.00276e-16
1.20083e-16
1.54455e-16
1.93881e-16
2.33306e-16
3.02551e-16
3.83852e-16
4.65152e-16
6.11076e-16
7.87157e-16
9.63238e-16
1.28885e-15
1.69444e-15
2.10003e-15
2.87521e-15
3.87575e-15
4.87629e-15
6.84468e-15
9.48313e-15
1.21216e-14
1.74101e-14
2.47757e-14
3.21413e-14
4.69909e-14
6.84693e-14
8.99478e-14
1.32989e-13
1.97593e-13
2.62197e-13
3.89755e-13
5.88388e-13
7.87022e-13
1.17157e-12
1.79332e-12
2.41506e-12
3.5951e-12
5.58153e-12
7.56797e-12
1.12893e-11
1.78556e-11
2.44219e-11
3.67999e-11
6.00425e-11
8.32851e-11
1.29159e-10
2.23525e-10
3.17891e-10
4.95835e-10
8.80504e-10
1.82018e-09
3.55539e-09
7.11281e-09
1.54669e-08
3.82643e-08
8.97914e-08
2.00279e-07
4.5909e-07
9.91594e-07
2.02601e-06
3.90477e-06
7.04073e-06
1.19433e-05
1.89865e-05
2.83725e-05
4.00248e-05
5.40756e-05
7.04209e-05
8.86569e-05
0.000108741
0.0001307
0.000153678
0.000177507
0.000202432
0.000227552
0.000252838
0.000277606
0.000301656
0.000324653
0.000345743
0.000365409
0.000383496
0.000398274
0.000411264
0.000422173
0.000429652
0.000435416
0.000439106
0.00043998
0.000439495
0.000437331
0.000433251
0.000428265
0.000422149
0.000414431
0.000406393
0.000398355
0.00038939
0.000380198
0.000371006
0.000361633
0.000352207
0.00034278
0.000333585
0.000324469
0.000315353
0.00030666
0.000298137
0.000289614
0.000281574
0.000273759
0.000265945
0.000258604
0.000251517
0.00024443
0.000237776
0.000231385
0.000224995
0.000218983
0.000213234
0.000207485
0.00020206
0.000196889
0.000191718
0.000186821
0.000182165
0.00017751
0.000173083
0.000168885
0.000164686
0.000160677
0.000156883
0.000153088
0.00014945
0.000146012
0.000142575
0.000139266
0.000136144
0.000133022
0.000130005
0.000127163
0.000124321
0.000121565
0.000118971
0.000116378
0.000113855
0.000111482
0.00010911
0.000106795
0.000104621
0.000102447
0.000100318
9.8321e-05
9.6324e-05
9.43632e-05
9.25254e-05
9.06876e-05
8.88781e-05
8.71837e-05
8.54894e-05
8.38166e-05
8.22517e-05
8.06867e-05
7.91378e-05
7.76901e-05
7.62423e-05
7.48058e-05
7.34643e-05
7.21229e-05
7.07887e-05
6.95438e-05
6.82989e-05
6.70581e-05
6.59012e-05
6.47443e-05
6.35886e-05
6.25121e-05
6.14355e-05
6.0359e-05
5.93547e-05
5.83516e-05
5.73484e-05
5.64095e-05
5.54736e-05
5.45377e-05
5.36589e-05
5.27848e-05
5.19106e-05
5.10872e-05
5.02698e-05
4.94524e-05
4.86801e-05
4.7915e-05
4.71498e-05
4.64248e-05
4.57078e-05
4.49908e-05
4.43096e-05
4.36371e-05
4.29646e-05
4.23239e-05
4.16925e-05
4.10612e-05
4.04581e-05
3.98649e-05
3.92716e-05
3.87035e-05
3.81456e-05
3.75878e-05
3.70523e-05
3.65272e-05
3.60022e-05
3.5497e-05
3.50025e-05
3.4508e-05
3.40312e-05
3.35652e-05
3.30992e-05
3.26488e-05
3.22093e-05
3.17698e-05
3.13442e-05
3.09295e-05
3.05147e-05
3.01121e-05
2.97203e-05
2.93285e-05
2.89935e-05
2.87153e-05
2.84371e-05
2.81589e-05
2.78807e-05
2.76025e-05
2.73243e-05
2.70461e-05
2.67679e-05
2.64897e-05
2.62115e-05
2.59333e-05
2.56551e-05
2.53769e-05
2.50987e-05
2.48205e-05
2.45423e-05
2.42641e-05
2.39859e-05
2.37077e-05
2.34295e-05
2.31513e-05
2.28731e-05
2.25949e-05
2.23167e-05
2.20385e-05
2.17603e-05
2.14821e-05
2.12039e-05
2.09257e-05
2.0689e-05
2.05093e-05
2.03295e-05
2.01497e-05
1.997e-05
1.97902e-05
1.96104e-05
1.94307e-05
1.92509e-05
1.90711e-05
1.88914e-05
1.87116e-05
1.85318e-05
1.8352e-05
1.81723e-05
1.79925e-05
1.78127e-05
1.7633e-05
1.74532e-05
1.72734e-05
1.70937e-05
1.69139e-05
1.67341e-05
1.65544e-05
1.63746e-05
1.61948e-05
1.60151e-05
1.58353e-05
1.56555e-05
1.54758e-05
1.53247e-05
1.52286e-05
1.51324e-05
1.50362e-05
1.49401e-05
1.48439e-05
1.47477e-05
1.46516e-05
1.45554e-05
1.44592e-05
1.43631e-05
1.42669e-05
1.41707e-05
1.40746e-05
1.39784e-05
1.38822e-05
1.37861e-05
1.36899e-05
1.35937e-05
1.34976e-05
1.34014e-05
1.33052e-05
1.32091e-05
1.31129e-05
1.30167e-05
1.29206e-05
1.28244e-05
1.27283e-05
1.26321e-05
1.25359e-05
1.24398e-05
1.23436e-05
1.22474e-05
1.21513e-05
1.20551e-05
1.19589e-05
1.18628e-05
1.17666e-05
1.16704e-05
1.15743e-05
1.14781e-05
1.13819e-05
1.12858e-05
1.11896e-05
1.10934e-05
1.09973e-05
1.09011e-05
1.08049e-05
1.07088e-05
1.06126e-05
1.05164e-05
1.04203e-05
1.03241e-05
1.02279e-05
1.01318e-05
1.00356e-05
9.93944e-06
9.84327e-06
9.74711e-06
9.65094e-06
9.56303e-06
9.51089e-06
9.45874e-06
9.4066e-06
9.35445e-06
9.30231e-06
9.25016e-06
9.19802e-06
9.14588e-06
9.09373e-06
9.04159e-06
8.98944e-06
8.9373e-06
8.88515e-06
8.83301e-06
8.78087e-06
8.72872e-06
8.67658e-06
8.62443e-06
8.57229e-06
8.52014e-06
8.468e-06
8.41586e-06
8.36371e-06
8.31157e-06
8.25942e-06
8.20728e-06
8.15513e-06
8.10299e-06
8.05085e-06
7.9987e-06
7.94656e-06
7.89441e-06
7.84227e-06
7.79012e-06
7.73798e-06
7.68583e-06
7.63369e-06
7.58155e-06
7.5294e-06
7.47726e-06
7.42511e-06
7.37297e-06
7.32082e-06
7.26868e-06
7.21654e-06
7.16439e-06
7.11225e-06
7.0601e-06
7.00796e-06
6.95581e-06
6.90367e-06
6.85153e-06
6.79938e-06
6.74724e-06
6.69509e-06
6.64295e-06
6.5908e-06
6.53866e-06
6.48652e-06
6.43504e-06
6.40435e-06
6.37365e-06
6.34296e-06
6.31226e-06
6.28157e-06
6.25087e-06
6.22018e-06
6.18948e-06
6.15879e-06
6.12809e-06
6.0974e-06
6.06671e-06
6.03601e-06
6.00532e-06
5.97462e-06
5.94393e-06
5.91323e-06
5.88254e-06
5.85184e-06
)
;

boundaryField
{
    inlet
    {
        type            fixedValue;
        value           uniform 0;
    }
    outlet
    {
        type            zeroGradient;
    }
    wall
    {
        type            empty;
    }
}


// ************************************************************************* //
