/*--------------------------------*- C++ -*----------------------------------*\
| =========                 |                                                 |
| \\      /  F ield         | OpenFOAM: The Open Source CFD Toolbox           |
|  \\    /   O peration     | Version:  4.x                                   |
|   \\  /    A nd           | Web:      www.OpenFOAM.org                      |
|    \\/     M anipulation  |                                                 |
\*---------------------------------------------------------------------------*/
FoamFile
{
    version     2.0;
    format      ascii;
    class       volScalarField;
    location    "0";
    object      H2;
}
// * * * * * * * * * * * * * * * * * * * * * * * * * * * * * * * * * * * * * //

dimensions      [0 0 0 0 0 0 0];

internalField   nonuniform List<scalar> 
500
(
0.017304
0.017304
0.017304
0.017304
0.017304
0.017304
0.017304
0.017304
0.017304
0.017304
0.017304
0.017304
0.017304
0.017304
0.017304
0.017304
0.017304
0.017304
0.017304
0.017304
0.017304
0.017304
0.017304
0.017304
0.017304
0.017304
0.017304
0.0173039
0.0173039
0.0173039
0.0173039
0.0173039
0.0173039
0.0173039
0.0173039
0.0173039
0.0173039
0.0173039
0.0173038
0.0173038
0.0173038
0.0173038
0.0173037
0.0173037
0.0173037
0.0173036
0.0173036
0.0173036
0.0173035
0.0173034
0.0173034
0.0173033
0.0173032
0.0173031
0.0173031
0.0173029
0.0173028
0.0173027
0.0173025
0.0173023
0.0173022
0.0173019
0.0173017
0.0173014
0.0173011
0.0173008
0.0173004
0.0173
0.0172995
0.017299
0.0172984
0.0172978
0.0172971
0.0172962
0.0172953
0.0172944
0.0172932
0.0172919
0.0172906
0.0172889
0.0172871
0.0172853
0.017283
0.0172805
0.017278
0.0172748
0.0172713
0.0172678
0.0172634
0.0172585
0.0172535
0.0172475
0.0172406
0.0172337
0.0172253
0.0172157
0.0172061
0.0171945
0.0171811
0.0171677
0.0171517
0.017133
0.0171143
0.0170921
0.017066
0.0170399
0.0170093
0.016973
0.0169366
0.0168944
0.0168439
0.0167933
0.0167352
0.016665
0.0165948
0.0165152
0.0164181
0.016321
0.0162124
0.0160791
0.0159458
0.0158021
0.0156326
0.0154403
0.0152329
0.015001
0.0147488
0.0144661
0.0141585
0.0138265
0.0134676
0.0130851
0.0126807
0.0122586
0.0118215
0.0113728
0.0109158
0.010454
0.00998993
0.00952574
0.00906343
0.00860409
0.00814902
0.00769961
0.00725547
0.00681599
0.00638777
0.00596737
0.00555411
0.00515742
0.00477412
0.0044057
0.00405986
0.00372814
0.00341205
0.00312613
0.00285596
0.00260406
0.00238192
0.00217481
0.00198588
0.00182234
0.0016715
0.00153653
0.00142089
0.00131501
0.00122165
0.00114843
0.00107923
0.00101004
0.000958272
0.000910781
0.000863291
0.000826931
0.000793845
0.00076076
0.00073462
0.000710891
0.000687161
0.000667723
0.000650019
0.000632315
0.000617265
0.000603454
0.000589643
0.000577495
0.000566235
0.000554976
0.000544783
0.000535239
0.000525696
0.000516858
0.000508509
0.00050016
0.000492298
0.000484816
0.000477335
0.000470205
0.000463384
0.000456564
0.000450006
0.000443712
0.000437417
0.000431328
0.00042547
0.000419612
0.000413918
0.000408435
0.000402951
0.000397602
0.000392448
0.000387294
0.000382252
0.000377393
0.000372535
0.00036777
0.000363181
0.000358591
0.000354081
0.000349738
0.000345396
0.00034112
0.000337006
0.000332893
0.000328834
0.000324933
0.000321032
0.000317176
0.000313473
0.00030977
0.000306104
0.000302587
0.000299069
0.00029558
0.000292236
0.000288892
0.000285571
0.000282389
0.000279208
0.000276043
0.000273015
0.000269987
0.00026697
0.000264085
0.000261201
0.000258322
0.000255573
0.000252824
0.000250077
0.000247455
0.000244834
0.000242212
0.000239709
0.000237207
0.000234706
0.000232313
0.000229925
0.000227537
0.000225248
0.000222967
0.000220686
0.000218495
0.000216315
0.000214135
0.000212038
0.000209954
0.00020787
0.000205861
0.000203868
0.000201874
0.000199949
0.000198042
0.000196134
0.000194289
0.000192463
0.000190636
0.000188867
0.000187118
0.000185369
0.000183672
0.000181996
0.000180321
0.000178693
0.000177087
0.000175481
0.000173918
0.000172379
0.000170839
0.000169339
0.000167864
0.000166388
0.000164948
0.000163533
0.000162117
0.000160735
0.000159378
0.000158021
0.000156694
0.000155394
0.000154094
0.000152944
0.000151946
0.000150947
0.000149948
0.00014895
0.000147951
0.000146953
0.000145954
0.000144955
0.000143957
0.000142958
0.000141959
0.000140961
0.000139962
0.000138964
0.000137965
0.000136966
0.000135968
0.000134969
0.000133971
0.000132972
0.000131973
0.000130975
0.000129976
0.000128977
0.000127979
0.00012698
0.000125982
0.000124983
0.000123984
0.0001231
0.000122371
0.000121643
0.000120914
0.000120185
0.000119457
0.000118728
0.000118
0.000117271
0.000116542
0.000115814
0.000115085
0.000114357
0.000113628
0.0001129
0.000112171
0.000111442
0.000110714
0.000109985
0.000109257
0.000108528
0.000107799
0.000107071
0.000106342
0.000105614
0.000104885
0.000104157
0.000103428
0.000102699
0.000101971
0.000101338
0.00010089
0.000100441
9.99926e-05
9.95439e-05
9.90953e-05
9.86467e-05
9.8198e-05
9.77494e-05
9.73008e-05
9.68522e-05
9.64035e-05
9.59549e-05
9.55063e-05
9.50576e-05
9.4609e-05
9.41604e-05
9.37117e-05
9.32631e-05
9.28145e-05
9.23659e-05
9.19172e-05
9.14686e-05
9.102e-05
9.05713e-05
9.01227e-05
8.96741e-05
8.92254e-05
8.87768e-05
8.83282e-05
8.78796e-05
8.74309e-05
8.69823e-05
8.65337e-05
8.6085e-05
8.56364e-05
8.51878e-05
8.47391e-05
8.42905e-05
8.38419e-05
8.33932e-05
8.29446e-05
8.2496e-05
8.20474e-05
8.15987e-05
8.11501e-05
8.07015e-05
8.02528e-05
7.98042e-05
7.93556e-05
7.89069e-05
7.84583e-05
7.80097e-05
7.75611e-05
7.71124e-05
7.66638e-05
7.62152e-05
7.57665e-05
7.53179e-05
7.48693e-05
7.44513e-05
7.41665e-05
7.38816e-05
7.35968e-05
7.33119e-05
7.30271e-05
7.27422e-05
7.24573e-05
7.21725e-05
7.18876e-05
7.16028e-05
7.13179e-05
7.1033e-05
7.07482e-05
7.04633e-05
7.01785e-05
6.98936e-05
6.96087e-05
6.93239e-05
6.9039e-05
6.87542e-05
6.84693e-05
6.81844e-05
6.78996e-05
6.76147e-05
6.73299e-05
6.7045e-05
6.67602e-05
6.64753e-05
6.61904e-05
6.59056e-05
6.56207e-05
6.53359e-05
6.5051e-05
6.47661e-05
6.44813e-05
6.41964e-05
6.39116e-05
6.36267e-05
6.33418e-05
6.3057e-05
6.27721e-05
6.24873e-05
6.22024e-05
6.19175e-05
6.16327e-05
6.13478e-05
6.1063e-05
6.07781e-05
6.04933e-05
6.02084e-05
5.99235e-05
5.96387e-05
5.93538e-05
5.9069e-05
5.87841e-05
5.84992e-05
5.82144e-05
5.79295e-05
5.76447e-05
5.73627e-05
5.71717e-05
5.69806e-05
5.67895e-05
5.65984e-05
5.64073e-05
5.62162e-05
5.60252e-05
5.58341e-05
5.5643e-05
5.54519e-05
5.52608e-05
5.50697e-05
5.48787e-05
5.46876e-05
5.44965e-05
5.43054e-05
5.41143e-05
5.39232e-05
5.37322e-05
)
;

boundaryField
{
    inlet
    {
        type            fixedValue;
        value           uniform 0.017304;
    }
    outlet
    {
        type            zeroGradient;
    }
    wall
    {
        type            empty;
    }
}


// ************************************************************************* //
