/*--------------------------------*- C++ -*----------------------------------*\
| =========                 |                                                 |
| \\      /  F ield         | OpenFOAM: The Open Source CFD Toolbox           |
|  \\    /   O peration     | Version:  4.x                                   |
|   \\  /    A nd           | Web:      www.OpenFOAM.org                      |
|    \\/     M anipulation  |                                                 |
\*---------------------------------------------------------------------------*/
FoamFile
{
    version     2.0;
    format      ascii;
    class       volScalarField;
    location    "0";
    object      H2O;
}
// * * * * * * * * * * * * * * * * * * * * * * * * * * * * * * * * * * * * * //

dimensions      [0 0 0 0 0 0 0];

internalField   nonuniform List<scalar> 
500
(
8.66581e-18
9.76147e-18
1.08571e-17
1.25895e-17
1.50409e-17
1.74922e-17
2.1279e-17
2.67696e-17
3.22603e-17
4.05395e-17
5.28467e-17
6.51539e-17
8.32537e-17
1.10853e-16
1.38453e-16
1.78012e-16
2.39929e-16
3.01847e-16
3.88273e-16
5.27217e-16
6.66162e-16
8.54887e-16
1.16675e-15
1.47862e-15
1.89049e-15
2.59061e-15
3.29073e-15
4.189e-15
5.76098e-15
7.33296e-15
9.29061e-15
1.28206e-14
1.63506e-14
2.06136e-14
2.85412e-14
3.64689e-14
4.57435e-14
6.35491e-14
8.13547e-14
1.01514e-13
1.41508e-13
1.81502e-13
2.25273e-13
3.15112e-13
4.0495e-13
4.99879e-13
7.01694e-13
9.03509e-13
1.10914e-12
1.56251e-12
2.01589e-12
2.46927e-12
3.47926e-12
4.49781e-12
5.51636e-12
7.74697e-12
1.00353e-11
1.23236e-11
1.72486e-11
2.23898e-11
2.75309e-11
3.84019e-11
4.99527e-11
6.15035e-11
8.54915e-11
1.11443e-10
1.37395e-10
1.90311e-10
2.48619e-10
3.06927e-10
4.23615e-10
5.54621e-10
6.85628e-10
9.42851e-10
1.2372e-09
1.53154e-09
2.09835e-09
2.75968e-09
3.42101e-09
4.66951e-09
6.15537e-09
7.64123e-09
1.03901e-08
1.37284e-08
1.70667e-08
2.31164e-08
3.06164e-08
3.81164e-08
5.14239e-08
6.82728e-08
8.51216e-08
1.14379e-07
1.52227e-07
1.90075e-07
2.54361e-07
3.39368e-07
4.24375e-07
5.6553e-07
7.56416e-07
9.47303e-07
1.25699e-06
1.68548e-06
2.11397e-06
2.79272e-06
3.75402e-06
4.71531e-06
6.20089e-06
8.35536e-06
1.05098e-05
1.3755e-05
1.85755e-05
2.33961e-05
3.04642e-05
4.12183e-05
5.19723e-05
6.72962e-05
9.1163e-05
0.00011503
0.000148002
0.000200485
0.000252968
0.000318772
0.000417529
0.000560079
0.000737779
0.000979652
0.00129419
0.00174624
0.00234508
0.00312432
0.00416243
0.00550125
0.00719583
0.00925848
0.0117165
0.0145726
0.0177926
0.0213146
0.0250776
0.0290581
0.0332199
0.0375179
0.0419419
0.0464911
0.0511048
0.0557722
0.0605093
0.0652574
0.0700148
0.0747248
0.0793717
0.0839257
0.08831
0.0925669
0.0966828
0.100493
0.104131
0.107569
0.110662
0.113574
0.116266
0.11864
0.120852
0.12286
0.124612
0.126234
0.127686
0.128859
0.129976
0.131093
0.131969
0.132785
0.133601
0.134257
0.134865
0.135473
0.135975
0.136441
0.136907
0.137303
0.137672
0.138041
0.138364
0.138665
0.138967
0.139238
0.139492
0.139746
0.139979
0.140198
0.140418
0.140622
0.140816
0.14101
0.141192
0.141365
0.141539
0.141704
0.141861
0.142018
0.142169
0.142312
0.142456
0.142594
0.142726
0.142859
0.142987
0.143109
0.143231
0.14335
0.143464
0.143577
0.143688
0.143794
0.1439
0.144004
0.144103
0.144202
0.144299
0.144391
0.144484
0.144575
0.144662
0.144749
0.144835
0.144917
0.144999
0.14508
0.145157
0.145234
0.145311
0.145383
0.145456
0.145528
0.145597
0.145666
0.145734
0.145799
0.145864
0.145929
0.145991
0.146053
0.146114
0.146172
0.146231
0.146289
0.146345
0.1464
0.146456
0.146508
0.146561
0.146614
0.146664
0.146714
0.146764
0.146812
0.14686
0.146908
0.146953
0.146999
0.147044
0.147088
0.147131
0.147175
0.147217
0.147258
0.147299
0.147339
0.147379
0.147419
0.147457
0.147494
0.147532
0.147569
0.147605
0.147641
0.147676
0.147711
0.147746
0.147779
0.147812
0.147845
0.147878
0.147909
0.147941
0.147972
0.148002
0.148033
0.148063
0.148092
0.148121
0.148149
0.148177
0.148205
0.148232
0.148259
0.148286
0.148312
0.148338
0.148363
0.148386
0.148405
0.148424
0.148443
0.148462
0.148481
0.1485
0.148519
0.148538
0.148557
0.148576
0.148595
0.148615
0.148634
0.148653
0.148672
0.148691
0.14871
0.148729
0.148748
0.148767
0.148786
0.148805
0.148824
0.148844
0.148863
0.148882
0.148901
0.14892
0.148939
0.148956
0.14897
0.148984
0.148998
0.149013
0.149027
0.149041
0.149055
0.149069
0.149083
0.149097
0.149112
0.149126
0.14914
0.149154
0.149168
0.149182
0.149196
0.149211
0.149225
0.149239
0.149253
0.149267
0.149281
0.149295
0.14931
0.149324
0.149338
0.149352
0.149366
0.149378
0.149387
0.149396
0.149405
0.149414
0.149423
0.149432
0.14944
0.149449
0.149458
0.149467
0.149476
0.149485
0.149493
0.149502
0.149511
0.14952
0.149529
0.149538
0.149546
0.149555
0.149564
0.149573
0.149582
0.149591
0.1496
0.149608
0.149617
0.149626
0.149635
0.149644
0.149653
0.149661
0.14967
0.149679
0.149688
0.149697
0.149706
0.149714
0.149723
0.149732
0.149741
0.14975
0.149759
0.149768
0.149776
0.149785
0.149794
0.149803
0.149812
0.149821
0.149829
0.149838
0.149847
0.149856
0.149865
0.149874
0.149883
0.149891
0.1499
0.149909
0.149914
0.14992
0.149926
0.149932
0.149938
0.149944
0.14995
0.149956
0.149961
0.149967
0.149973
0.149979
0.149985
0.149991
0.149997
0.150003
0.150009
0.150014
0.15002
0.150026
0.150032
0.150038
0.150044
0.15005
0.150056
0.150061
0.150067
0.150073
0.150079
0.150085
0.150091
0.150097
0.150103
0.150109
0.150114
0.15012
0.150126
0.150132
0.150138
0.150144
0.15015
0.150156
0.150161
0.150167
0.150173
0.150179
0.150185
0.150191
0.150197
0.150203
0.150209
0.150214
0.15022
0.150226
0.150232
0.150238
0.150244
0.15025
0.150256
0.150261
0.150266
0.15027
0.150274
0.150278
0.150282
0.150286
0.15029
0.150294
0.150299
0.150303
0.150307
0.150311
0.150315
0.150319
0.150323
0.150328
0.150332
0.150336
0.15034
)
;

boundaryField
{
    inlet
    {
        type            fixedValue;
        value           uniform 0;
    }
    outlet
    {
        type            zeroGradient;
    }
    wall
    {
        type            empty;
    }
}


// ************************************************************************* //
