/*--------------------------------*- C++ -*----------------------------------*\
| =========                 |                                                 |
| \\      /  F ield         | OpenFOAM: The Open Source CFD Toolbox           |
|  \\    /   O peration     | Version:  4.x                                   |
|   \\  /    A nd           | Web:      www.OpenFOAM.org                      |
|    \\/     M anipulation  |                                                 |
\*---------------------------------------------------------------------------*/
FoamFile
{
    version     2.0;
    format      ascii;
    class       volScalarField;
    location    "0";
    object      N2;
}
// * * * * * * * * * * * * * * * * * * * * * * * * * * * * * * * * * * * * * //

dimensions      [0 0 0 0 0 0 0];

internalField   nonuniform List<scalar> 
500
(
0.753809
0.753809
0.753809
0.753809
0.753809
0.753809
0.753809
0.753809
0.753809
0.753809
0.753809
0.753809
0.753809
0.753809
0.753809
0.753809
0.753809
0.753809
0.753809
0.753809
0.753809
0.753809
0.753809
0.753809
0.753809
0.753809
0.753809
0.753809
0.753809
0.753809
0.753809
0.753809
0.753809
0.753809
0.753809
0.753809
0.753809
0.753809
0.753809
0.753809
0.753809
0.753809
0.753809
0.753809
0.753809
0.753809
0.753809
0.753809
0.753809
0.753809
0.753809
0.753809
0.753809
0.75381
0.75381
0.75381
0.75381
0.75381
0.75381
0.75381
0.75381
0.75381
0.753811
0.753811
0.753811
0.753811
0.753812
0.753812
0.753812
0.753813
0.753813
0.753814
0.753814
0.753815
0.753815
0.753816
0.753817
0.753818
0.753819
0.75382
0.753822
0.753823
0.753825
0.753827
0.753829
0.753831
0.753834
0.753836
0.75384
0.753843
0.753847
0.753852
0.753857
0.753862
0.753868
0.753876
0.753883
0.753891
0.753902
0.753912
0.753924
0.753938
0.753951
0.753968
0.753987
0.754007
0.754029
0.754056
0.754082
0.754113
0.754149
0.754185
0.754225
0.754273
0.754322
0.754375
0.754437
0.7545
0.754566
0.754643
0.75472
0.754799
0.754882
0.754964
0.755043
0.755114
0.755173
0.755203
0.755202
0.755163
0.75507
0.754923
0.75472
0.754472
0.754187
0.753878
0.753555
0.753225
0.752895
0.752568
0.752252
0.751951
0.751672
0.751425
0.751207
0.751012
0.750874
0.75077
0.750698
0.750683
0.750708
0.750772
0.750882
0.751011
0.75116
0.751334
0.751514
0.751702
0.751891
0.752077
0.752259
0.75243
0.752593
0.752745
0.752881
0.753008
0.753121
0.753211
0.753296
0.75338
0.753445
0.753504
0.753564
0.753609
0.75365
0.753691
0.753722
0.75375
0.753778
0.753799
0.753817
0.753836
0.75385
0.753862
0.753875
0.753884
0.753893
0.753901
0.753908
0.753913
0.753919
0.753923
0.753927
0.75393
0.753934
0.753936
0.753939
0.753941
0.753942
0.753944
0.753945
0.753946
0.753948
0.753949
0.753949
0.75395
0.753951
0.753951
0.753952
0.753952
0.753952
0.753953
0.753953
0.753953
0.753953
0.753953
0.753953
0.753953
0.753953
0.753953
0.753953
0.753953
0.753953
0.753953
0.753953
0.753952
0.753952
0.753952
0.753952
0.753952
0.753952
0.753951
0.753951
0.753951
0.753951
0.75395
0.75395
0.75395
0.75395
0.753949
0.753949
0.753949
0.753949
0.753948
0.753948
0.753948
0.753947
0.753947
0.753947
0.753946
0.753946
0.753946
0.753946
0.753945
0.753945
0.753945
0.753944
0.753944
0.753944
0.753944
0.753943
0.753943
0.753943
0.753942
0.753942
0.753942
0.753941
0.753941
0.753941
0.753941
0.75394
0.75394
0.75394
0.75394
0.753939
0.753939
0.753939
0.753938
0.753938
0.753938
0.753938
0.753937
0.753937
0.753937
0.753937
0.753936
0.753936
0.753936
0.753936
0.753935
0.753935
0.753935
0.753935
0.753934
0.753934
0.753934
0.753934
0.753933
0.753933
0.753933
0.753933
0.753933
0.753932
0.753932
0.753932
0.753932
0.753932
0.753932
0.753931
0.753931
0.753931
0.753931
0.753931
0.753931
0.75393
0.75393
0.75393
0.75393
0.75393
0.75393
0.75393
0.753929
0.753929
0.753929
0.753929
0.753929
0.753929
0.753928
0.753928
0.753928
0.753928
0.753928
0.753928
0.753928
0.753927
0.753927
0.753927
0.753927
0.753927
0.753927
0.753927
0.753926
0.753926
0.753926
0.753926
0.753926
0.753926
0.753926
0.753926
0.753925
0.753925
0.753925
0.753925
0.753925
0.753925
0.753925
0.753924
0.753924
0.753924
0.753924
0.753924
0.753924
0.753924
0.753924
0.753924
0.753924
0.753924
0.753923
0.753923
0.753923
0.753923
0.753923
0.753923
0.753923
0.753923
0.753923
0.753923
0.753923
0.753923
0.753923
0.753923
0.753922
0.753922
0.753922
0.753922
0.753922
0.753922
0.753922
0.753922
0.753922
0.753922
0.753922
0.753922
0.753922
0.753922
0.753921
0.753921
0.753921
0.753921
0.753921
0.753921
0.753921
0.753921
0.753921
0.753921
0.753921
0.753921
0.753921
0.753921
0.753921
0.75392
0.75392
0.75392
0.75392
0.75392
0.75392
0.75392
0.75392
0.75392
0.75392
0.75392
0.75392
0.75392
0.75392
0.75392
0.75392
0.753919
0.753919
0.753919
0.753919
0.753919
0.753919
0.753919
0.753919
0.753919
0.753919
0.753919
0.753919
0.753919
0.753919
0.753919
0.753919
0.753919
0.753919
0.753919
0.753919
0.753919
0.753918
0.753918
0.753918
0.753918
0.753918
0.753918
0.753918
0.753918
0.753918
0.753918
0.753918
0.753918
0.753918
0.753918
0.753918
0.753918
0.753918
0.753918
0.753918
0.753918
0.753918
0.753918
0.753917
0.753917
0.753917
0.753917
0.753917
0.753917
0.753917
0.753917
0.753917
0.753917
0.753917
0.753917
0.753917
0.753917
0.753917
0.753917
0.753917
0.753917
0.753917
0.753917
0.753917
0.753917
0.753917
0.753917
0.753917
0.753917
0.753916
0.753916
0.753916
0.753916
0.753916
)
;

boundaryField
{
    inlet
    {
        type            fixedValue;
        value           uniform 0.753809;
    }
    outlet
    {
        type            zeroGradient;
    }
    wall
    {
        type            empty;
    }
}


// ************************************************************************* //
