/*--------------------------------*- C++ -*----------------------------------*\
| =========                 |                                                 |
| \\      /  F ield         | OpenFOAM: The Open Source CFD Toolbox           |
|  \\    /   O peration     | Version:  4.x                                   |
|   \\  /    A nd           | Web:      www.OpenFOAM.org                      |
|    \\/     M anipulation  |                                                 |
\*---------------------------------------------------------------------------*/
FoamFile
{
    version     2.0;
    format      ascii;
    class       volScalarField;
    location    "0";
    object      O;
}
// * * * * * * * * * * * * * * * * * * * * * * * * * * * * * * * * * * * * * //

dimensions      [0 0 0 0 0 0 0];

internalField   nonuniform List<scalar> 
500
(
1.3243e-17
1.53676e-17
1.74922e-17
2.04862e-17
2.44616e-17
2.84369e-17
3.39333e-17
4.13702e-17
4.88071e-17
5.88925e-17
7.28035e-17
8.67145e-17
1.05212e-16
1.31231e-16
1.57251e-16
1.91162e-16
2.39829e-16
2.88495e-16
3.50638e-16
4.4166e-16
5.32683e-16
6.46511e-16
8.16753e-16
9.86995e-16
1.1954e-15
1.51381e-15
1.83221e-15
2.2136e-15
2.80912e-15
3.40464e-15
4.10224e-15
5.21605e-15
6.32986e-15
7.60522e-15
9.68838e-15
1.17715e-14
1.41019e-14
1.79981e-14
2.18942e-14
2.615e-14
3.3437e-14
4.0724e-14
4.84915e-14
6.21204e-14
7.57493e-14
8.99173e-14
1.15408e-13
1.40898e-13
1.66724e-13
2.14399e-13
2.62074e-13
3.09748e-13
3.98285e-13
4.87451e-13
5.76617e-13
7.39857e-13
9.06623e-13
1.07339e-12
1.3743e-12
1.6862e-12
1.99811e-12
2.55267e-12
3.13602e-12
3.71937e-12
4.74117e-12
5.8322e-12
6.92323e-12
8.80552e-12
1.08461e-11
1.28866e-11
1.63531e-11
2.01695e-11
2.39858e-11
3.03685e-11
3.7506e-11
4.46434e-11
5.63922e-11
6.97409e-11
8.30895e-11
1.0471e-10
1.29674e-10
1.54639e-10
1.94414e-10
2.41101e-10
2.87788e-10
3.60939e-10
4.48245e-10
5.35551e-10
6.7004e-10
8.33298e-10
9.96557e-10
1.24372e-09
1.54898e-09
1.85424e-09
2.3083e-09
2.87899e-09
3.44968e-09
4.28342e-09
5.35016e-09
6.41689e-09
7.94695e-09
9.94033e-09
1.19337e-08
1.47397e-08
1.84632e-08
2.21867e-08
2.73285e-08
3.42798e-08
4.12311e-08
5.06436e-08
6.3611e-08
7.65784e-08
9.37895e-08
1.1796e-07
1.42131e-07
1.73573e-07
2.1861e-07
2.63646e-07
3.21104e-07
4.05177e-07
4.8925e-07
5.89519e-07
7.29847e-07
9.18813e-07
1.1464e-06
1.44407e-06
1.82442e-06
2.36595e-06
3.09867e-06
4.1028e-06
5.59386e-06
7.80457e-06
1.1132e-05
1.60675e-05
2.32166e-05
3.32618e-05
4.67558e-05
6.42945e-05
8.66044e-05
0.000115776
0.000154434
0.000204296
0.000269477
0.000354968
0.000457469
0.000574755
0.000722556
0.000886229
0.00106424
0.00126309
0.00147418
0.00169416
0.00192142
0.00214802
0.00237378
0.00259032
0.00279925
0.00299904
0.0031793
0.00334807
0.00350256
0.00363425
0.00375357
0.00385704
0.00393939
0.00401048
0.00406676
0.00409736
0.00412281
0.00414827
0.00414998
0.00414585
0.00414173
0.00412171
0.00409701
0.00407231
0.00403785
0.00399999
0.00396213
0.00391886
0.00387341
0.00382795
0.00377997
0.00373081
0.00368164
0.00363174
0.00358145
0.00353116
0.00348118
0.00343139
0.0033816
0.00333267
0.00328434
0.00323602
0.00318881
0.00314248
0.00309616
0.00305103
0.00300696
0.00296289
0.00291999
0.00287827
0.00283654
0.00279591
0.0027565
0.0027171
0.00267869
0.00264153
0.00260437
0.00256809
0.00253307
0.00249805
0.0024638
0.0024308
0.00239779
0.00236545
0.00233433
0.00230322
0.00227266
0.00224331
0.00221396
0.00218508
0.00215737
0.00212966
0.00210235
0.00207617
0.00204999
0.00202414
0.00199939
0.00197464
0.00195015
0.00192673
0.00190331
0.00188009
0.0018579
0.00183572
0.00181369
0.00179267
0.00177164
0.00175072
0.00173077
0.00171082
0.00169095
0.00167201
0.00165307
0.00163417
0.00161617
0.00159817
0.00158019
0.00156307
0.00154596
0.00152884
0.00151254
0.00149626
0.00147997
0.00146443
0.00144892
0.00143341
0.00141858
0.0014038
0.00138902
0.00137486
0.00136077
0.00134668
0.00133314
0.0013197
0.00130625
0.00129332
0.00128048
0.00126765
0.00125528
0.00124302
0.00123076
0.00121892
0.0012072
0.00119548
0.00118415
0.00117295
0.00116174
0.00115089
0.00114017
0.00112945
0.00111905
0.00110879
0.00109854
0.00108857
0.00107875
0.00106893
0.00105937
0.00104997
0.00104056
0.00103139
0.00102239
0.00101338
0.00100459
0.000995962
0.000987336
0.000978906
0.000970649
0.000962391
0.00095512
0.000948833
0.000942547
0.000936261
0.000929975
0.000923688
0.000917402
0.000911116
0.00090483
0.000898543
0.000892257
0.000885971
0.000879684
0.000873398
0.000867112
0.000860826
0.000854539
0.000848253
0.000841967
0.00083568
0.000829394
0.000823108
0.000816822
0.000810535
0.000804249
0.000797963
0.000791677
0.00078539
0.000779104
0.000772818
0.000767257
0.00076269
0.000758122
0.000753555
0.000748988
0.000744421
0.000739854
0.000735287
0.000730719
0.000726152
0.000721585
0.000717018
0.000712451
0.000707884
0.000703316
0.000698749
0.000694182
0.000689615
0.000685048
0.000680481
0.000675913
0.000671346
0.000666779
0.000662212
0.000657645
0.000653078
0.00064851
0.000643943
0.000639376
0.000634809
0.00063085
0.000628051
0.000625251
0.000622452
0.000619653
0.000616854
0.000614055
0.000611256
0.000608457
0.000605658
0.000602859
0.00060006
0.000597261
0.000594462
0.000591663
0.000588863
0.000586064
0.000583265
0.000580466
0.000577667
0.000574868
0.000572069
0.00056927
0.000566471
0.000563672
0.000560873
0.000558074
0.000555275
0.000552476
0.000549676
0.000546877
0.000544078
0.000541279
0.00053848
0.000535681
0.000532882
0.000530083
0.000527284
0.000524485
0.000521686
0.000518887
0.000516088
0.000513288
0.000510489
0.00050769
0.000504891
0.000502092
0.000499293
0.000496494
0.000493695
0.000490896
0.000488097
0.000485298
0.000482499
0.0004797
0.000476901
0.000474101
0.000471302
0.000468503
0.000465704
0.000463098
0.000461327
0.000459556
0.000457786
0.000456015
0.000454244
0.000452473
0.000450702
0.000448931
0.000447161
0.00044539
0.000443619
0.000441848
0.000440077
0.000438307
0.000436536
0.000434765
0.000432994
0.000431223
0.000429453
0.000427682
0.000425911
0.00042414
0.000422369
0.000420598
0.000418828
0.000417057
0.000415286
0.000413515
0.000411744
0.000409974
0.000408203
0.000406432
0.000404661
0.00040289
0.00040112
0.000399349
0.000397578
0.000395807
0.000394036
0.000392266
0.000390495
0.000388724
0.000386953
0.000385182
0.000383411
0.000381641
0.00037987
0.000378099
0.000376328
0.000374557
0.000372787
0.000371016
0.000369245
0.000367474
0.000365703
0.000363933
0.000362162
0.000360391
0.00035862
0.000356868
0.000355682
0.000354496
0.000353311
0.000352125
0.00035094
0.000349754
0.000348569
0.000347383
0.000346198
0.000345012
0.000343827
0.000342641
0.000341455
0.00034027
0.000339084
0.000337899
0.000336713
0.000335528
0.000334342
)
;

boundaryField
{
    inlet
    {
        type            fixedValue;
        value           uniform 0;
    }
    outlet
    {
        type            zeroGradient;
    }
    wall
    {
        type            empty;
    }
}


// ************************************************************************* //
