/*--------------------------------*- C++ -*----------------------------------*\
| =========                 |                                                 |
| \\      /  F ield         | OpenFOAM: The Open Source CFD Toolbox           |
|  \\    /   O peration     | Version:  4.x                                   |
|   \\  /    A nd           | Web:      www.OpenFOAM.org                      |
|    \\/     M anipulation  |                                                 |
\*---------------------------------------------------------------------------*/
FoamFile
{
    version     2.0;
    format      ascii;
    class       volScalarField;
    location    "0";
    object      O2;
}
// * * * * * * * * * * * * * * * * * * * * * * * * * * * * * * * * * * * * * //

dimensions      [0 0 0 0 0 0 0];

internalField   nonuniform List<scalar> 
500
(
0.228887
0.228887
0.228887
0.228887
0.228887
0.228887
0.228887
0.228887
0.228887
0.228887
0.228887
0.228887
0.228887
0.228887
0.228887
0.228887
0.228887
0.228887
0.228887
0.228887
0.228887
0.228887
0.228887
0.228887
0.228887
0.228887
0.228887
0.228887
0.228887
0.228887
0.228887
0.228887
0.228887
0.228887
0.228887
0.228887
0.228887
0.228887
0.228887
0.228887
0.228887
0.228887
0.228887
0.228887
0.228887
0.228887
0.228887
0.228887
0.228887
0.228887
0.228887
0.228887
0.228887
0.228887
0.228887
0.228887
0.228887
0.228887
0.228887
0.228888
0.228888
0.228888
0.228888
0.228888
0.228888
0.228888
0.228888
0.228888
0.228888
0.228888
0.228888
0.228889
0.228889
0.228889
0.228889
0.228889
0.22889
0.22889
0.22889
0.228891
0.228891
0.228892
0.228892
0.228893
0.228893
0.228894
0.228895
0.228896
0.228897
0.228898
0.228899
0.228901
0.228902
0.228904
0.228906
0.228908
0.228911
0.228913
0.228916
0.22892
0.228923
0.228928
0.228932
0.228937
0.228943
0.228948
0.228955
0.228962
0.22897
0.228978
0.228987
0.228996
0.229006
0.229016
0.229026
0.229036
0.229044
0.229052
0.229057
0.229054
0.229052
0.229043
0.229018
0.228967
0.228895
0.228781
0.228618
0.228355
0.227981
0.227467
0.226747
0.225784
0.224532
0.222982
0.22111
0.21891
0.216402
0.21363
0.210636
0.207427
0.20402
0.200447
0.196698
0.192755
0.188686
0.184508
0.180137
0.175683
0.171154
0.166552
0.161931
0.157324
0.152791
0.148345
0.143996
0.139898
0.135954
0.132191
0.128764
0.125518
0.122497
0.119812
0.117303
0.115017
0.113017
0.111167
0.109512
0.108186
0.106927
0.105667
0.104697
0.103798
0.102899
0.102198
0.101556
0.100913
0.100401
0.0999356
0.0994699
0.0990907
0.0987465
0.0984024
0.098115
0.0978543
0.0975935
0.0973704
0.0971674
0.0969645
0.0967868
0.0966246
0.0964624
0.0963176
0.0961847
0.0960519
0.0959313
0.0958203
0.0957092
0.0956069
0.0955124
0.0954179
0.0953299
0.0952483
0.0951667
0.09509
0.0950188
0.0949476
0.0948802
0.0948175
0.0947548
0.094695
0.0946394
0.0945838
0.0945305
0.094481
0.0944314
0.0943837
0.0943393
0.094295
0.0942521
0.0942122
0.0941724
0.0941337
0.0940978
0.0940619
0.0940269
0.0939945
0.0939621
0.0939304
0.0939011
0.0938719
0.0938431
0.0938166
0.09379
0.0937639
0.0937399
0.0937158
0.0936921
0.0936702
0.0936484
0.0936268
0.0936069
0.0935871
0.0935674
0.0935494
0.0935314
0.0935134
0.093497
0.0934806
0.0934643
0.0934493
0.0934344
0.0934195
0.0934059
0.0933923
0.0933788
0.0933664
0.093354
0.0933417
0.0933303
0.0933191
0.0933078
0.0932975
0.0932873
0.093277
0.0932676
0.0932583
0.093249
0.0932404
0.0932319
0.0932235
0.0932156
0.0932079
0.0932002
0.0931931
0.0931861
0.0931791
0.0931726
0.0931663
0.0931599
0.093154
0.0931483
0.0931425
0.0931372
0.093132
0.0931268
0.0931219
0.0931173
0.0931126
0.0931082
0.093104
0.0930998
0.0930959
0.0930922
0.0930884
0.093085
0.0930817
0.0930784
0.0930753
0.0930724
0.0930696
0.0930677
0.0930669
0.0930661
0.0930652
0.0930644
0.0930636
0.0930628
0.0930619
0.0930611
0.0930603
0.0930595
0.0930586
0.0930578
0.093057
0.0930561
0.0930553
0.0930545
0.0930537
0.0930528
0.093052
0.0930512
0.0930504
0.0930495
0.0930487
0.0930479
0.093047
0.0930462
0.0930454
0.0930446
0.0930437
0.0930434
0.0930437
0.0930441
0.0930444
0.0930447
0.093045
0.0930454
0.0930457
0.093046
0.0930464
0.0930467
0.093047
0.0930473
0.0930477
0.093048
0.0930483
0.0930486
0.093049
0.0930493
0.0930496
0.09305
0.0930503
0.0930506
0.0930509
0.0930513
0.0930516
0.0930519
0.0930523
0.0930526
0.0930529
0.0930535
0.0930544
0.0930554
0.0930564
0.0930574
0.0930583
0.0930593
0.0930603
0.0930613
0.0930623
0.0930632
0.0930642
0.0930652
0.0930662
0.0930671
0.0930681
0.0930691
0.0930701
0.093071
0.093072
0.093073
0.093074
0.0930749
0.0930759
0.0930769
0.0930779
0.0930788
0.0930798
0.0930808
0.0930818
0.0930828
0.0930837
0.0930847
0.0930857
0.0930867
0.0930876
0.0930886
0.0930896
0.0930906
0.0930915
0.0930925
0.0930935
0.0930945
0.0930954
0.0930964
0.0930974
0.0930984
0.0930994
0.0931003
0.0931013
0.0931023
0.0931033
0.0931042
0.0931052
0.0931062
0.0931072
0.0931081
0.0931091
0.0931101
0.0931111
0.0931121
0.0931132
0.0931143
0.0931154
0.0931165
0.0931176
0.0931187
0.0931198
0.0931209
0.093122
0.0931231
0.0931242
0.0931253
0.0931264
0.0931275
0.0931286
0.0931297
0.0931308
0.0931319
0.093133
0.0931341
0.0931352
0.0931363
0.0931374
0.0931385
0.0931396
0.0931407
0.0931418
0.0931429
0.093144
0.0931451
0.0931462
0.0931473
0.0931484
0.0931495
0.0931506
0.0931517
0.0931528
0.0931539
0.093155
0.0931561
0.0931572
0.0931583
0.0931594
0.0931605
0.0931616
0.0931627
0.0931638
0.0931649
0.093166
0.0931671
0.0931682
0.0931693
0.0931704
0.0931715
0.0931726
0.0931737
0.0931748
0.0931759
0.093177
0.0931781
0.0931791
0.0931801
0.0931812
0.0931822
0.0931832
0.0931843
0.0931853
0.0931863
0.0931874
0.0931884
0.0931894
0.0931905
0.0931915
0.0931925
0.0931936
0.0931946
0.0931957
0.0931967
0.0931977
)
;

boundaryField
{
    inlet
    {
        type            fixedValue;
        value           uniform 0.228887;
    }
    outlet
    {
        type            zeroGradient;
    }
    wall
    {
        type            empty;
    }
}


// ************************************************************************* //
