/*--------------------------------*- C++ -*----------------------------------*\
| =========                 |                                                 |
| \\      /  F ield         | OpenFOAM: The Open Source CFD Toolbox           |
|  \\    /   O peration     | Version:  4.x                                   |
|   \\  /    A nd           | Web:      www.OpenFOAM.org                      |
|    \\/     M anipulation  |                                                 |
\*---------------------------------------------------------------------------*/
FoamFile
{
    version     2.0;
    format      ascii;
    class       volScalarField;
    location    "0";
    object      T;
}
// * * * * * * * * * * * * * * * * * * * * * * * * * * * * * * * * * * * * * //

dimensions      [0 0 0 1 0 0 0];

internalField   nonuniform List<scalar> 
500
(
300
300
300
300
300
300
300
300
300
300
300
300
300
300
300
300
300
300
300
300
300
300
300
300
300
300
300
300
300
300
300
300
300
300
300
300
300
300
300
300
300
300
300
300
300
300
300
300
300
300
300
300
300
300
300
300
300
300
300
300
300
300
300
300
300
300
300
300
300
300
300
300
300
300.001
300.001
300.001
300.001
300.001
300.001
300.002
300.002
300.003
300.003
300.004
300.005
300.006
300.008
300.009
300.011
300.014
300.017
300.021
300.026
300.031
300.039
300.049
300.058
300.072
300.09
300.108
300.133
300.167
300.2
300.247
300.309
300.371
300.458
300.574
300.69
300.848
301.066
301.284
301.574
301.982
302.39
302.922
303.687
304.452
305.429
306.862
308.294
309.995
312.361
315.512
319.263
324.076
330.004
337.929
347.872
360.195
375.76
394.9
418.069
445.141
476.103
510.605
547.963
587.305
627.895
669.248
710.849
752.315
793.342
833.638
873.206
912.132
949.567
986.071
1021.73
1055.68
1088.33
1119.64
1149.05
1177.43
1204.67
1229.89
1254.1
1277.16
1298.41
1318.76
1338.02
1355.77
1372.75
1388.76
1403.55
1417.7
1431.02
1442.91
1454.51
1466.11
1476.34
1486.23
1496.12
1504.94
1513.45
1521.97
1529.65
1537.05
1544.45
1551.2
1557.69
1564.18
1570.16
1575.9
1581.63
1586.96
1592.07
1597.18
1601.95
1606.53
1611.11
1615.42
1619.54
1623.66
1627.56
1631.3
1635.03
1638.58
1641.97
1645.37
1648.61
1651.71
1654.81
1657.78
1660.62
1663.46
1666.19
1668.8
1671.41
1673.93
1676.33
1678.74
1681.07
1683.29
1685.51
1687.68
1689.73
1691.79
1693.8
1695.71
1697.63
1699.5
1701.28
1703.06
1704.8
1706.46
1708.12
1709.76
1711.3
1712.85
1714.38
1715.84
1717.29
1718.72
1720.08
1721.44
1722.79
1724.06
1725.34
1726.61
1727.81
1729.01
1730.21
1731.34
1732.47
1733.6
1734.66
1735.73
1736.79
1737.8
1738.81
1739.81
1740.76
1741.71
1742.67
1743.57
1744.47
1745.37
1746.23
1747.08
1747.93
1748.74
1749.55
1750.36
1751.13
1751.9
1752.67
1753.4
1754.13
1754.86
1755.56
1756.26
1756.95
1757.62
1758.28
1758.94
1759.58
1760.2
1760.83
1761.44
1762.04
1762.64
1763.22
1763.79
1764.36
1764.92
1765.46
1766.01
1766.53
1767.05
1767.57
1768.08
1768.58
1769.07
1769.55
1770.03
1770.5
1770.96
1771.41
1771.86
1772.25
1772.58
1772.9
1773.23
1773.56
1773.88
1774.21
1774.54
1774.87
1775.19
1775.52
1775.85
1776.17
1776.5
1776.83
1777.15
1777.48
1777.81
1778.14
1778.46
1778.79
1779.12
1779.44
1779.77
1780.1
1780.42
1780.75
1781.08
1781.4
1781.73
1782.02
1782.26
1782.49
1782.73
1782.96
1783.2
1783.43
1783.67
1783.91
1784.14
1784.38
1784.61
1784.85
1785.09
1785.32
1785.56
1785.79
1786.03
1786.26
1786.5
1786.74
1786.97
1787.21
1787.44
1787.68
1787.91
1788.15
1788.39
1788.62
1788.86
1789.06
1789.2
1789.35
1789.49
1789.63
1789.77
1789.92
1790.06
1790.2
1790.35
1790.49
1790.63
1790.77
1790.92
1791.06
1791.2
1791.34
1791.49
1791.63
1791.77
1791.91
1792.06
1792.2
1792.34
1792.49
1792.63
1792.77
1792.91
1793.06
1793.2
1793.34
1793.48
1793.63
1793.77
1793.91
1794.05
1794.2
1794.34
1794.48
1794.63
1794.77
1794.91
1795.05
1795.2
1795.34
1795.48
1795.62
1795.77
1795.91
1796.05
1796.19
1796.34
1796.48
1796.62
1796.77
1796.91
1797.05
1797.19
1797.34
1797.48
1797.61
1797.7
1797.8
1797.89
1797.98
1798.07
1798.16
1798.26
1798.35
1798.44
1798.53
1798.63
1798.72
1798.81
1798.9
1798.99
1799.09
1799.18
1799.27
1799.36
1799.45
1799.55
1799.64
1799.73
1799.82
1799.92
1800.01
1800.1
1800.19
1800.28
1800.38
1800.47
1800.56
1800.65
1800.74
1800.84
1800.93
1801.02
1801.11
1801.2
1801.3
1801.39
1801.48
1801.57
1801.67
1801.76
1801.85
1801.94
1802.03
1802.13
1802.22
1802.31
1802.4
1802.49
1802.59
1802.68
1802.77
1802.86
1802.95
1803.05
1803.14
1803.2
1803.26
1803.33
1803.39
1803.45
1803.52
1803.58
1803.64
1803.71
1803.77
1803.83
1803.9
1803.96
1804.02
1804.09
1804.15
1804.21
1804.27
1804.34
)
;

boundaryField
{
    inlet
    {
        type            fixedValue;
        value           uniform 300;
    }
    outlet
    {
        type            zeroGradient;
    }
    wall
    {
        type            empty;
    }
}


// ************************************************************************* //
