x,NH3,C7H16,O2,N2,p,T
0,1.67982e-322,1,0,0,6.10251e+06,363
2e-05,0,1,0,3.33067e-16,6.10251e+06,363
4e-05,1.63042e-322,1,1.4822e-322,3.33067e-16,6.10251e+06,363
6e-05,1.58101e-322,1,1.33398e-322,2.22045e-16,6.10251e+06,363
8e-05,3.45846e-323,1,0,1.11022e-16,6.10251e+06,363
0.0001,0,1,1.72923e-322,4.44089e-16,6.10251e+06,363
0.00012,0,1,0,3.33067e-16,6.10251e+06,363
0.00014,0,1,0,2.22045e-16,6.10251e+06,363
0.00016,0,1,1.58101e-322,3.33067e-16,6.10251e+06,363
0.00018,0,1,0,3.33067e-16,6.10251e+06,363
0.0002,1.97626e-323,1,0,2.22045e-16,6.10251e+06,363
0.00022,2.47033e-323,1,0,6.66134e-16,6.10251e+06,363
0.00024,0,1,1.5316e-322,3.33067e-16,6.10251e+06,363
0.00026,1.38338e-322,1,0,2.22045e-16,6.10251e+06,363
0.00028,3.95253e-323,1,1.33398e-322,0,6.10251e+06,363
0.0003,1.28457e-322,1,0,1.11022e-16,6.10251e+06,363
0.00032,1.43279e-322,1,0,2.22045e-16,6.10251e+06,363
0.00034,2.47033e-323,1,0,0,6.10251e+06,363
0.00036,1.33398e-322,1,0,2.22045e-16,6.10251e+06,363
0.00038,1.97626e-323,1,0,2.22045e-16,6.10251e+06,363
0.0004,1.67982e-322,1,0,1.11022e-16,6.10251e+06,363
0.00042,0,1,1.23516e-322,3.33067e-16,6.10251e+06,363
0.00044,0,1,0,3.33067e-16,6.10251e+06,363
0.00046,0,1,1.43279e-322,7.77156e-16,6.10251e+06,363
0.00048,0,1,1.58101e-322,1.11022e-16,6.10251e+06,363
0.0005,0,1,0,2.22045e-16,6.10251e+06,363
0.00052,1.38338e-322,1,0,3.33067e-16,6.10251e+06,363
0.00054,0,1,0,2.22045e-16,6.10251e+06,363
0.00056,1.38338e-322,1,1.38338e-322,4.44089e-16,6.10251e+06,363
0.00058,0,1,0,2.22045e-16,6.10251e+06,363
0.0006,0,1,1.33398e-322,2.22045e-16,6.10251e+06,363
0.00062,0,1,3.70549e-322,2.22045e-16,6.10251e+06,363
0.00064,0,1,6.42285e-322,1.11022e-16,6.10251e+06,363
0.00066,0,1,3.31024e-322,0,6.10251e+06,363
0.00068,1.58101e-322,1,6.62048e-322,1.11022e-16,6.10251e+06,363
0.0007,2.47033e-323,1,3.50787e-322,2.22045e-16,6.10251e+06,363
0.00072,0,1,6.96633e-322,1.11022e-16,6.10251e+06,363
0.00074,0,1,2.91005e-321,1.11022e-16,6.10251e+06,363
0.00076,0,1,5.88976e-320,0,6.10251e+06,363
0.00078,0,1,1.42807e-318,0,6.10251e+06,363
0.0008,0,1,3.48388e-317,8.88178e-16,6.10251e+06,363
0.00082,0,1,8.46548e-316,1.22125e-15,6.10251e+06,363
0.00084,0,1,2.04779e-314,1.33227e-15,6.10251e+06,363
0.00086,0,1,4.93125e-313,6.66134e-16,6.10251e+06,363
0.00088,2.47033e-323,1,1.18211e-311,1.22125e-15,6.10251e+06,363
0.0009,0,1,2.82092e-310,1.22125e-15,6.10251e+06,363
0.00092,0,1,6.70109e-309,1.22125e-15,6.10251e+06,363
0.00094,0,1,1.5846e-307,7.77156e-16,6.10251e+06,363
0.00096,0,1,3.73004e-306,3.33067e-16,6.10251e+06,363
0.00098,0,1,8.74014e-305,2.22045e-16,6.10251e+06,363
0.001,0,1,2.0386e-303,0,6.10251e+06,363
0.00102,0,1,4.73318e-302,3.33067e-16,6.10251e+06,363
0.00104,0,1,1.09389e-300,4.44089e-16,6.10251e+06,363
0.00106,0,1,2.51647e-299,1.11022e-16,6.10251e+06,363
0.00108,9.88131e-324,1,5.76241e-298,6.66134e-16,6.10251e+06,363
0.0011,1.23516e-322,1,1.31343e-296,2.22045e-16,6.10251e+06,363
0.00112,1.28457e-322,1,2.97984e-295,8.88178e-16,6.10251e+06,363
0.00114,0,1,6.72918e-294,7.77156e-16,6.10251e+06,363
0.00116,1.63042e-322,1,1.51255e-292,9.99201e-16,6.10251e+06,363
0.00118,0,1,3.38399e-291,1.11022e-15,6.10251e+06,363
0.0012,0,1,7.53562e-290,9.99201e-16,6.10251e+06,363
0.00122,1.38338e-322,1,1.67022e-288,3.33067e-16,6.10251e+06,363
0.00124,0,1,3.68461e-287,9.99201e-16,6.10251e+06,363
0.00126,0,1,8.09033e-286,9.99201e-16,6.10251e+06,363
0.00128,1.5316e-322,1,1.76805e-284,5.55112e-16,6.10251e+06,363
0.0013,3.0138e-322,1,3.84566e-283,5.55112e-16,6.10251e+06,363
0.00132,7.75683e-321,1,8.32515e-282,1.22125e-15,6.10251e+06,363
0.00134,2.13851e-319,1,1.79372e-280,7.77156e-16,6.10251e+06,363
0.00136,6.25706e-318,1,3.8464e-279,7.77156e-16,6.10251e+06,363
0.00138,1.82845e-316,1,8.20891e-278,1.22125e-15,6.10251e+06,363
0.0014,5.3168e-315,1,1.74359e-276,8.88178e-16,6.10251e+06,363
0.00142,1.53825e-313,1,3.68577e-275,3.33067e-16,6.10251e+06,363
0.00144,4.42801e-312,1,7.75409e-274,3.33067e-16,6.10251e+06,363
0.00146,1.2682e-310,1,1.62349e-272,0,6.10251e+06,363
0.00148,3.61375e-309,1,3.38281e-271,6.66134e-16,6.10251e+06,363
0.0015,1.02451e-307,1,7.01477e-270,5.55112e-16,6.10251e+06,363
0.00152,2.88972e-306,1,1.44761e-268,4.44089e-16,6.10251e+06,363
0.00154,8.1091e-305,1,2.97294e-267,2.22045e-16,6.10251e+06,363
0.00156,2.26391e-303,1,6.07596e-266,0,6.10251e+06,363
0.00158,6.288e-302,1,1.23576e-264,0,6.10251e+06,363
0.0016,1.7375e-300,1,2.50112e-263,3.33067e-16,6.10251e+06,363
0.00162,4.7763e-299,1,5.03751e-262,1.11022e-16,6.10251e+06,363
0.00164,1.30619e-297,1,1.00965e-260,2.22045e-16,6.10251e+06,363
0.00166,3.55359e-296,1,2.01373e-259,2.22045e-16,6.10251e+06,363
0.00168,9.61756e-295,1,3.99663e-258,2.22045e-16,6.10251e+06,363
0.0017,2.58937e-293,1,7.89314e-257,0,6.10251e+06,363.001
0.00172,6.93508e-292,1,1.55118e-255,1.11022e-16,6.10251e+06,363.001
0.00174,1.84769e-290,1,3.03338e-254,0,6.10251e+06,363.001
0.00176,4.89692e-289,1,5.90254e-253,3.33067e-16,6.10251e+06,363.001
0.00178,1.291e-287,1,1.14286e-251,1.11022e-16,6.10251e+06,363.001
0.0018,3.38559e-286,1,2.20185e-250,2.22045e-16,6.10251e+06,363.001
0.00182,8.83163e-285,1,4.22099e-249,4.44089e-16,6.10251e+06,363.001
0.00184,2.29161e-283,1,8.05138e-248,0,6.10251e+06,363.001
0.00186,5.91462e-282,1,1.52809e-246,4.44089e-16,6.10251e+06,363.001
0.00188,1.51843e-280,1,2.88568e-245,5.55112e-16,6.10251e+06,363.001
0.0019,3.87739e-279,1,5.42201e-244,5.55112e-16,6.10251e+06,363.001
0.00192,9.84813e-278,1,1.01364e-242,9.99201e-16,6.10251e+06,363.001
0.00194,2.4879e-276,1,1.88542e-241,9.99201e-16,6.10251e+06,363.001
0.00196,6.25128e-275,1,3.48927e-240,5.55112e-16,6.10251e+06,363.001
0.00198,1.56228e-273,1,6.42472e-239,9.99201e-16,6.10251e+06,363.001
0.002,3.88324e-272,1,1.17696e-237,4.44089e-16,6.10251e+06,363.001
0.00202,9.60001e-271,1,2.14515e-236,2.22045e-16,6.10251e+06,363.001
0.00204,2.36039e-269,1,3.88983e-235,8.88178e-16,6.10251e+06,363.001
0.00206,1.16802e-268,1,1.65323e-234,2.22045e-16,6.10251e+06,363.001
0.00208,1.40375e-266,1,1.25949e-232,1.11022e-16,6.10251e+06,363.001
0.0021,3.39525e-265,1,2.24892e-231,0,6.10251e+06,363.001
0.00212,8.16703e-264,1,3.99498e-230,1.11022e-16,6.10251e+06,363.001
0.00214,1.95372e-262,1,7.06004e-229,0,6.10251e+06,363.001
0.00216,4.64793e-261,1,1.24122e-227,0,6.10251e+06,363.001
0.00218,1.09964e-259,1,2.17087e-226,0,6.10251e+06,363.001
0.0022,2.58719e-258,1,3.77708e-225,3.33067e-16,6.10251e+06,363.001
0.00222,6.05323e-257,1,6.53748e-224,4.44089e-16,6.10251e+06,363.001
0.00224,1.40838e-255,1,1.12562e-222,5.55112e-16,6.10251e+06,363.001
0.00226,3.25854e-254,1,1.92795e-221,3.33067e-16,6.10251e+06,363.001
0.00228,7.49703e-253,1,3.28486e-220,1.11022e-16,6.10251e+06,363.001
0.0023,1.71519e-251,1,5.56734e-219,0,6.10251e+06,363.001
0.00232,3.90197e-250,1,9.38608e-218,4.44089e-16,6.10251e+06,363.001
0.00234,8.82675e-249,1,1.57406e-216,2.22045e-16,6.10251e+06,363.001
0.00236,1.98543e-247,1,2.62574e-215,0,6.10251e+06,363.001
0.00238,4.4406e-246,1,4.35683e-214,1.11022e-16,6.10251e+06,363.001
0.0024,9.87538e-245,1,7.19074e-213,0,6.10251e+06,363.001
0.00242,2.18366e-243,1,1.18047e-211,0,6.10251e+06,363.001
0.00244,4.80097e-242,1,1.92755e-210,2.22045e-16,6.10251e+06,363.001
0.00246,1.04949e-240,1,3.13057e-209,0,6.10251e+06,363.001
0.00248,2.28103e-239,1,5.05711e-208,1.11022e-16,6.10251e+06,363.001
0.0025,4.92919e-238,1,8.12523e-207,0,6.10251e+06,363.001
0.00252,1.05903e-236,1,1.29843e-205,0,6.10251e+06,363.001
0.00254,2.26215e-235,1,2.06368e-204,0,6.10251e+06,363.001
0.00256,4.80406e-234,1,3.26215e-203,0,6.10251e+06,363.001
0.00258,1.0143e-232,1,5.12857e-202,0,6.10251e+06,363.001
0.0026,2.12903e-231,1,8.01889e-201,0,6.10251e+06,363.001
0.00262,4.44279e-230,1,1.24696e-199,0,6.10251e+06,363.001
0.00264,9.21673e-229,1,1.92842e-198,0,6.10251e+06,363.001
0.00266,1.90082e-227,1,2.96591e-197,0,6.10251e+06,363.001
0.00268,3.89709e-226,1,4.53645e-196,0,6.10251e+06,363.001
0.0027,7.9427e-225,1,6.9003e-195,0,6.10251e+06,363.001
0.00272,1.60923e-223,1,1.04378e-193,4.44089e-16,6.10251e+06,363.001
0.00274,3.24105e-222,1,1.57012e-192,4.44089e-16,6.10251e+06,363.001
0.00276,6.48876e-221,1,2.34872e-191,4.44089e-16,6.10251e+06,363.001
0.00278,1.29134e-219,1,3.49382e-190,0,6.10251e+06,363.001
0.0028,2.55455e-218,1,5.16813e-189,0,6.10251e+06,363.001
0.00282,5.02316e-217,1,7.60191e-188,0,6.10251e+06,363.001
0.00284,9.81799e-216,1,1.11189e-186,0,6.10251e+06,363.001
0.00286,1.90741e-214,1,1.61714e-185,0,6.10251e+06,363.001
0.00288,3.68328e-213,1,2.33867e-184,0,6.10251e+06,363.001
0.0029,7.06947e-212,1,3.36295e-183,0,6.10251e+06,363.001
0.00292,1.34864e-210,1,4.80837e-182,0,6.10251e+06,363.001
0.00294,2.55712e-209,1,6.83585e-181,0,6.10251e+06,363.001
0.00296,4.81891e-208,1,9.66269e-180,0,6.10251e+06,363.001
0.00298,9.02572e-207,1,1.35803e-178,5.55112e-16,6.10251e+06,363.001
0.003,1.68013e-205,1,1.89765e-177,2.22045e-16,6.10251e+06,363.001
0.00302,3.10832e-204,1,2.63642e-176,0,6.10251e+06,363.001
0.00304,5.71507e-203,1,3.64164e-175,1.11022e-16,6.10251e+06,363.001
0.00306,1.0443e-201,1,5.00099e-174,1.11022e-16,6.10251e+06,363.001
0.00308,1.8964e-200,1,6.82788e-173,0,6.10251e+06,363.001
0.0031,3.42238e-199,1,9.26783e-172,0,6.10251e+06,363.001
0.00312,6.1378e-198,1,1.25062e-170,0,6.10251e+06,363.001
0.00314,1.0939e-196,1,1.67774e-169,0,6.10251e+06,363.001
0.00316,1.93737e-195,1,2.2375e-168,0,6.10251e+06,363.001
0.00318,3.4097e-194,1,2.96645e-167,1.11022e-16,6.10251e+06,363.001
0.0032,5.96317e-193,1,3.90965e-166,1.11022e-16,6.10251e+06,363.002
0.00322,1.03631e-191,1,5.12223e-165,7.77156e-16,6.10251e+06,363.002
0.00324,1.78957e-190,1,6.67103e-164,7.77156e-16,6.10251e+06,363.002
0.00326,3.07074e-189,1,8.63639e-163,1.55431e-15,6.10251e+06,363.002
0.00328,5.23562e-188,1,1.1114e-161,1.33227e-15,6.10251e+06,363.002
0.0033,8.86988e-187,1,1.42166e-160,7.77156e-16,6.10251e+06,363.002
0.00332,1.49308e-185,1,1.80762e-159,5.55112e-16,6.10251e+06,363.002
0.00334,2.49723e-184,1,2.28451e-158,5.55112e-16,6.10251e+06,363.002
0.00336,4.14988e-183,1,2.86977e-157,5.55112e-16,6.10251e+06,363.002
0.00338,6.85186e-182,1,3.58311e-156,6.66134e-16,6.10251e+06,363.002
0.0034,1.12401e-180,1,4.44658e-155,4.44089e-16,6.10251e+06,363.002
0.00342,1.83194e-179,1,5.48449e-154,2.22045e-16,6.10251e+06,363.002
0.00344,2.96639e-178,1,6.72331e-153,7.77156e-16,6.10251e+06,363.002
0.00346,4.77212e-177,1,8.19141e-152,1.11022e-16,6.10251e+06,363.002
0.00348,7.62701e-176,1,9.9187e-151,4.44089e-16,6.10251e+06,363.002
0.0035,1.21102e-174,1,1.19361e-149,5.55112e-16,6.10251e+06,363.002
0.00352,1.91026e-173,1,1.4275e-148,1.22125e-15,6.10251e+06,363.002
0.00354,2.99345e-172,1,1.69663e-147,5.55112e-16,6.10251e+06,363.002
0.00356,4.65998e-171,1,2.00394e-146,3.33067e-16,6.10251e+06,363.002
0.00358,7.20644e-170,1,2.35214e-145,0,6.10251e+06,363.002
0.0036,1.10707e-168,1,2.74355e-144,0,6.10251e+06,363.002
0.00362,1.68943e-167,1,3.18e-143,4.44089e-16,6.10251e+06,363.002
0.00364,2.56099e-166,1,3.66264e-142,4.44089e-16,6.10251e+06,363.002
0.00366,3.8563e-165,1,4.19189e-141,7.77156e-16,6.10251e+06,363.002
0.00368,5.76799e-164,1,4.76718e-140,0,6.10251e+06,363.002
0.0037,8.5696e-163,1,5.38696e-139,0,6.10251e+06,363.002
0.00372,1.26465e-161,1,6.04848e-138,4.44089e-16,6.10251e+06,363.002
0.00374,1.85375e-160,1,6.74777e-137,5.55112e-16,6.10251e+06,363.002
0.00376,2.69893e-159,1,7.47958e-136,5.55112e-16,6.10251e+06,363.002
0.00378,3.9029e-158,1,8.23737e-135,2.22045e-16,6.10251e+06,363.002
0.0038,5.60571e-157,1,9.01333e-134,6.66134e-16,6.10251e+06,363.002
0.00382,7.99677e-156,1,9.79847e-133,1.11022e-15,6.10251e+06,363.002
0.00384,1.133e-154,1,1.05827e-131,1.11022e-15,6.10251e+06,363.002
0.00386,1.59432e-153,1,1.13552e-130,1.22125e-15,6.10251e+06,363.002
0.00388,2.22813e-152,1,1.21044e-129,9.99201e-16,6.10251e+06,363.002
0.0039,3.09256e-151,1,1.28182e-128,3.33067e-16,6.10251e+06,363.002
0.00392,4.26287e-150,1,1.34848e-127,2.22045e-16,6.10251e+06,363.002
0.00394,5.8356e-149,1,1.40923e-126,6.66134e-16,6.10251e+06,363.003
0.00396,7.93346e-148,1,1.46295e-125,8.88178e-16,6.10251e+06,363.003
0.00398,1.07109e-146,1,1.50862e-124,1.11022e-15,6.10251e+06,363.003
0.004,1.43605e-145,1,1.54533e-123,1.33227e-15,6.10251e+06,363.003
0.00402,1.91198e-144,1,1.57234e-122,5.55112e-16,6.10251e+06,363.003
0.00404,2.52794e-143,1,1.58907e-121,0,6.10251e+06,363.003
0.00406,3.31901e-142,1,1.59516e-120,0,6.10251e+06,363.003
0.00408,4.32717e-141,1,1.59043e-119,3.33067e-16,6.10251e+06,363.003
0.0041,5.60205e-140,1,1.57496e-118,4.44089e-16,6.10251e+06,363.003
0.00412,2.01035e-139,1,4.94352e-118,5.55112e-16,6.10251e+06,363.003
0.00414,9.19278e-138,1,1.5131e-116,6.66134e-16,6.10251e+06,363.003
0.00416,1.16518e-136,1,1.46788e-115,7.77156e-16,6.10251e+06,363.003
0.00418,1.46642e-135,1,1.41421e-114,1.22125e-15,6.10251e+06,363.003
0.0042,1.83248e-134,1,1.3531e-113,1.55431e-15,6.10251e+06,363.003
0.00422,2.27369e-133,1,1.28566e-112,1.11022e-15,6.10251e+06,363.003
0.00424,2.80107e-132,1,1.21309e-111,9.99201e-16,6.10251e+06,363.003
0.00426,3.42621e-131,1,1.13664e-110,5.55112e-16,6.10251e+06,363.003
0.00428,4.16097e-130,1,1.05754e-109,9.99201e-16,6.10251e+06,363.003
0.0043,5.01719e-129,1,9.77036e-109,6.66134e-16,6.10251e+06,363.003
0.00432,6.00626e-128,1,8.96296e-108,8.88178e-16,6.10251e+06,363.003
0.00434,7.13872e-127,1,8.16411e-107,3.33067e-16,6.10251e+06,363.003
0.00436,8.42371e-126,1,7.38365e-106,5.55112e-16,6.10251e+06,363.003
0.00438,9.86841e-125,1,6.6302e-105,9.99201e-16,6.10251e+06,363.003
0.0044,1.14775e-123,1,5.91106e-104,1.11022e-15,6.10251e+06,363.003
0.00442,1.32524e-122,1,5.23209e-103,1.55431e-15,6.10251e+06,363.004
0.00444,1.51909e-121,1,4.59774e-102,9.99201e-16,6.10251e+06,363.004
0.00446,5.12913e-121,1,1.35925e-101,1.66533e-15,6.10251e+06,363.004
0.00448,1.95286e-119,1,3.47389e-100,1.33227e-15,6.10251e+06,363.004
0.0045,2.19007e-118,1,2.98672e-99,1.44329e-15,6.10251e+06,363.004
0.00452,2.43817e-117,1,2.5491e-98,1.22125e-15,6.10251e+06,363.004
0.00454,2.69454e-116,1,2.15963e-97,8.88178e-16,6.10251e+06,363.004
0.00456,2.95606e-115,1,1.81619e-96,1.55431e-15,6.10251e+06,363.004
0.00458,3.21918e-114,1,1.51607e-95,9.99201e-16,6.10251e+06,363.004
0.0046,3.47997e-113,1,1.25615e-94,1.44329e-15,6.10251e+06,363.004
0.00462,3.73418e-112,1,1.03303e-93,1.66533e-15,6.10251e+06,363.004
0.00464,3.97742e-111,1,8.43195e-93,1.88738e-15,6.10251e+06,363.004
0.00466,4.20521e-110,1,6.83075e-92,2.22045e-15,6.10251e+06,363.004
0.00468,4.41313e-109,1,5.4919e-91,1.77636e-15,6.10251e+06,363.004
0.0047,4.59698e-108,1,4.38207e-90,1.44329e-15,6.10251e+06,363.004
0.00472,4.75292e-107,1,3.46995e-89,1.33227e-15,6.10251e+06,363.004
0.00474,4.87757e-106,1,2.72674e-88,1.55431e-15,6.10251e+06,363.004
0.00476,4.96816e-105,1,2.1263e-87,1.44329e-15,6.10251e+06,363.005
0.00478,5.0226e-104,1,1.64534e-86,5.55112e-16,6.10251e+06,363.005
0.0048,5.03961e-103,1,1.26335e-85,1.11022e-16,6.10251e+06,363.005
0.00482,5.01873e-102,1,9.62525e-85,0,6.10251e+06,363.005
0.00484,4.96035e-101,1,7.27628e-84,7.77156e-16,6.10251e+06,363.005
0.00486,4.86569e-100,1,5.45759e-83,6.66134e-16,6.10251e+06,363.005
0.00488,4.73677e-99,1,4.06138e-82,1.11022e-16,6.10251e+06,363.005
0.0049,4.57634e-98,1,2.99857e-81,3.33067e-16,6.10251e+06,363.005
0.00492,4.38777e-97,1,2.19637e-80,6.66134e-16,6.10251e+06,363.005
0.00494,4.17495e-96,1,1.59602e-79,5.55112e-16,6.10251e+06,363.005
0.00496,3.94213e-95,1,1.15051e-78,8.88178e-16,6.10251e+06,363.005
0.00498,3.6938e-94,1,8.22729e-78,8.88178e-16,6.10251e+06,363.005
0.005,3.43455e-93,1,5.83602e-77,4.44089e-16,6.10251e+06,363.005
0.00502,3.1689e-92,1,4.10635e-76,3.33067e-16,6.10251e+06,363.005
0.00504,2.90122e-91,1,2.8659e-75,6.66134e-16,6.10251e+06,363.006
0.00506,2.63556e-90,1,1.98389e-74,0,6.10251e+06,363.006
0.00508,2.37562e-89,1,1.36209e-73,0,6.10251e+06,363.006
0.0051,2.1246e-88,1,9.27506e-73,2.22045e-16,6.10251e+06,363.006
0.00512,6.33501e-88,1,2.41282e-72,0,6.10251e+06,363.006
0.00514,1.65966e-86,1,4.19502e-71,1.11022e-15,6.10251e+06,363.006
0.00516,1.44955e-85,1,2.78618e-70,7.77156e-16,6.10251e+06,363.006
0.00518,1.25601e-84,1,1.83502e-69,5.55112e-16,6.10251e+06,363.006
0.0052,1.07964e-83,1,1.19843e-68,4.44089e-16,6.10251e+06,363.006
0.00522,9.20611e-83,1,7.76089e-68,3.33067e-16,6.10251e+06,363.006
0.00524,7.787e-82,1,4.9833e-67,1.44329e-15,6.10251e+06,363.007
0.00526,6.53345e-81,1,3.17259e-66,1.66533e-15,6.10251e+06,363.007
0.00528,5.43721e-80,1,2.00256e-65,7.77156e-16,6.10251e+06,363.007
0.0053,4.48799e-79,1,1.25318e-64,6.66134e-16,6.10251e+06,363.007
0.00532,3.67409e-78,1,7.77472e-64,1.11022e-16,6.10251e+06,363.007
0.00534,2.98299e-77,1,4.78165e-63,1.11022e-16,6.10251e+06,363.007
0.00536,2.4018e-76,1,2.91526e-62,1.11022e-16,6.10251e+06,363.007
0.00538,1.9177e-75,1,1.76183e-61,4.44089e-16,6.10251e+06,363.007
0.0054,1.51833e-74,1,1.05541e-60,0,6.10251e+06,363.007
0.00542,1.19197e-73,1,6.26661e-60,4.44089e-16,6.10251e+06,363.008
0.00544,9.27814e-73,1,3.68788e-59,3.33067e-16,6.10251e+06,363.008
0.00546,7.16018e-72,1,2.15098e-58,2.22045e-16,6.10251e+06,363.008
0.00548,5.47811e-71,1,1.24335e-57,6.66134e-16,6.10251e+06,363.008
0.0055,4.15486e-70,1,7.12242e-57,2.22045e-16,6.10251e+06,363.008
0.00552,3.12374e-69,1,4.04316e-56,5.55112e-16,6.10251e+06,363.008
0.00554,2.32787e-68,1,2.27432e-55,1.11022e-16,6.10251e+06,363.008
0.00556,1.71942e-67,1,1.26766e-54,4.44089e-16,6.10251e+06,363.008
0.00558,1.25868e-66,1,7.00089e-54,5.55112e-16,6.10251e+06,363.009
0.0056,9.13127e-66,1,3.83073e-53,1.11022e-15,6.10251e+06,363.009
0.00562,6.56447e-65,1,2.07667e-52,9.99201e-16,6.10251e+06,363.009
0.00564,4.67618e-64,1,1.1153e-51,1.55431e-15,6.10251e+06,363.009
0.00566,3.30047e-63,1,5.93376e-51,1.77636e-15,6.10251e+06,363.009
0.00568,2.30793e-62,1,3.12724e-50,2.22045e-15,6.10251e+06,363.009
0.0057,1.59882e-61,1,1.63254e-49,9.99201e-16,6.10251e+06,363.01
0.00572,1.09718e-60,1,8.44135e-49,1.33227e-15,6.10251e+06,363.01
0.00574,7.45796e-60,1,4.323e-48,1.33227e-15,6.10251e+06,363.01
0.00576,5.02108e-59,1,2.19259e-47,1.11022e-15,6.10251e+06,363.01
0.00578,3.34792e-58,1,1.1013e-46,1.44329e-15,6.10251e+06,363.01
0.0058,2.21064e-57,1,5.47775e-46,1.66533e-15,6.10251e+06,363.01
0.00582,1.44542e-56,1,2.69788e-45,1.22125e-15,6.10251e+06,363.011
0.00584,9.35769e-56,1,1.31564e-44,8.88178e-16,6.10251e+06,363.011
0.00586,5.99798e-55,1,6.35215e-44,1.55431e-15,6.10251e+06,363.011
0.00588,3.806e-54,1,3.03628e-43,1.11022e-15,6.10251e+06,363.011
0.0059,2.39069e-53,1,1.43672e-42,1.44329e-15,6.10251e+06,363.011
0.00592,1.48639e-52,1,6.7294e-42,1.22125e-15,6.10251e+06,363.012
0.00594,9.14656e-52,1,3.11979e-41,6.66134e-16,6.10251e+06,363.012
0.00596,5.57011e-51,1,1.43147e-40,4.44089e-16,6.10251e+06,363.012
0.00598,3.3567e-50,1,6.50003e-40,1.11022e-15,6.10251e+06,363.012
0.006,2.00155e-49,1,2.92067e-39,5.55112e-16,6.10251e+06,363.012
0.00602,1.18083e-48,1,1.29851e-38,1.11022e-15,6.10251e+06,363.013
0.00604,6.89179e-48,1,5.71171e-38,5.55112e-16,6.10251e+06,363.013
0.00606,3.97893e-47,1,2.48541e-37,6.66134e-16,6.10251e+06,363.013
0.00608,2.2722e-46,1,1.06978e-36,1.66533e-15,6.10251e+06,363.013
0.0061,1.28332e-45,1,4.5542e-36,3.10862e-15,6.10251e+06,363.014
0.00612,7.16791e-45,1,1.91733e-35,3.88578e-15,6.10251e+06,363.014
0.00614,3.9589e-44,1,7.98175e-35,4.21885e-15,6.10251e+06,363.014
0.00616,2.16193e-43,1,3.28518e-34,3.55271e-15,6.10251e+06,363.014
0.00618,1.16721e-42,1,1.33666e-33,2.88658e-15,6.10251e+06,363.015
0.0062,6.22958e-42,1,5.37554e-33,3.33067e-15,6.10251e+06,363.015
0.00622,3.28644e-41,1,2.13648e-32,9.99201e-16,6.10251e+06,363.015
0.00624,1.71358e-40,1,8.39039e-32,1.33227e-15,6.10251e+06,363.015
0.00626,8.8299e-40,1,3.25537e-31,4.44089e-16,6.10251e+06,363.016
0.00628,4.49606e-39,1,1.24761e-30,1.44329e-15,6.10251e+06,363.016
0.0063,2.26199e-38,1,4.72213e-30,1.55431e-15,6.10251e+06,363.016
0.00632,1.1243e-37,1,1.7648e-29,5.55112e-16,6.10251e+06,363.017
0.00634,5.52036e-37,1,6.51126e-29,1.55431e-15,6.10251e+06,363.017
0.00636,2.67729e-36,1,2.37113e-28,1.9984e-15,6.10251e+06,363.017
0.00638,1.28239e-35,1,8.52063e-28,1.22125e-15,6.10251e+06,363.018
0.0064,6.06593e-35,1,3.02074e-27,1.11022e-15,6.10251e+06,363.018
0.00642,2.83319e-34,1,1.05628e-26,1.33227e-15,6.10251e+06,363.018
0.00644,1.30649e-33,1,3.64215e-26,8.88178e-16,6.10251e+06,363.019
0.00646,5.94762e-33,1,1.23805e-25,6.66134e-16,6.10251e+06,363.019
0.00648,2.67261e-32,1,4.14762e-25,9.99201e-16,6.10251e+06,363.019
0.0065,1.18531e-31,1,1.36905e-24,6.66134e-16,6.10251e+06,363.02
0.00652,5.18782e-31,1,4.4511e-24,0,6.10251e+06,363.02
0.00654,2.24047e-30,1,1.42499e-23,4.44089e-16,6.10251e+06,363.02
0.00656,9.54652e-30,1,4.49064e-23,0,6.10251e+06,363.021
0.00658,4.01281e-29,1,1.39255e-22,0,6.10251e+06,363.021
0.0066,1.66379e-28,1,4.24783e-22,0,6.10251e+06,363.022
0.00662,6.80358e-28,1,1.27413e-21,5.55112e-16,6.10251e+06,363.022
0.00664,2.74355e-27,1,3.75647e-21,9.99201e-16,6.10251e+06,363.022
0.00666,1.09086e-26,1,1.08816e-20,2.22045e-16,6.10251e+06,363.023
0.00668,4.27613e-26,1,3.0957e-20,0,6.10251e+06,363.023
0.0067,1.65234e-25,1,8.64541e-20,3.33067e-16,6.10251e+06,363.024
0.00672,6.29299e-25,1,2.369e-19,0,6.10251e+06,363.024
0.00674,2.36192e-24,1,6.36612e-19,1.11022e-16,6.10251e+06,363.025
0.00676,8.73507e-24,1,1.67681e-18,5.55112e-16,6.10251e+06,363.025
0.00678,3.18272e-23,1,4.32657e-18,0,6.10251e+06,363.026
0.0068,1.14236e-22,1,1.09292e-17,1.11022e-16,6.10251e+06,363.026
0.00682,4.03844e-22,1,2.7011e-17,3.33067e-16,6.10251e+06,363.027
0.00684,1.40595e-21,1,6.52671e-17,0,6.10251e+06,363.027
0.00686,4.81959e-21,1,1.54074e-16,0,6.10251e+06,363.028
0.00688,1.62655e-20,1,3.55061e-16,9.99201e-16,6.10251e+06,363.028
0.0069,5.40359e-20,1,7.9808e-16,2.44249e-15,6.10251e+06,363.029
0.00692,1.76684e-19,1,1.74816e-15,7.88258e-15,6.10251e+06,363.029
0.00694,5.68549e-19,1,3.72836e-15,2.33147e-14,6.10251e+06,363.03
0.00696,1.80058e-18,1,7.73584e-15,5.11813e-14,6.10251e+06,363.03
0.00698,5.61434e-18,1,1.56077e-14,1.07803e-13,6.10251e+06,363.031
0.007,1.72607e-17,1,3.06346e-14,2.12497e-13,6.10251e+06,363.031
0.00702,5.25498e-17,1,5.86747e-14,4.11338e-13,6.10251e+06,363.032
0.00704,1.60302e-16,1,1.10719e-13,7.81375e-13,6.10251e+06,363.032
0.00706,5.03246e-16,1,2.10807e-13,1.49591e-12,6.10251e+06,363.033
0.00708,1.68519e-15,1,4.21809e-13,3.01204e-12,6.10251e+06,363.034
0.0071,6.00065e-15,1,9.12287e-13,6.54332e-12,6.10251e+06,363.034
0.00712,2.17272e-14,1,2.11605e-12,1.51646e-11,6.10251e+06,363.035
0.00714,7.75634e-14,1,5.15854e-12,3.66932e-11,6.10251e+06,363.037
0.00716,2.69998e-13,1,1.29877e-11,9.11212e-11,6.10251e+06,363.039
0.00718,9.1352e-13,1,3.33189e-11,2.2938e-10,6.10251e+06,363.041
0.0072,3.0014e-12,1,8.62178e-11,5.80111e-10,6.10251e+06,363.046
0.00722,9.57299e-12,1,2.23336e-10,1.46437e-09,6.10251e+06,363.052
0.00724,2.96367e-11,1,5.75861e-10,3.67183e-09,6.10251e+06,363.063
0.00726,8.90498e-11,1,1.47167e-09,9.11233e-09,6.10251e+06,363.081
0.00728,2.59671e-10,1,3.7153e-09,2.23188e-08,6.10251e+06,363.11
0.0073,7.34794e-10,1,9.24125e-09,5.38322e-08,6.10251e+06,363.156
0.00732,2.01752e-09,1,2.25994e-08,1.27631e-07,6.10251e+06,363.23
0.00734,5.37444e-09,1,5.42407e-08,2.96998e-07,6.10251e+06,363.344
0.00736,1.38882e-08,0.999999,1.27573e-07,6.77449e-07,6.10251e+06,363.521
0.00738,3.48076e-08,0.999998,2.93651e-07,1.51296e-06,6.10251e+06,363.791
0.0074,8.45889e-08,0.999996,6.60731e-07,3.30492e-06,6.10251e+06,364.196
0.00742,1.9926e-07,0.999991,1.45164e-06,7.05421e-06,6.10251e+06,364.794
0.00744,4.54794e-07,0.999982,3.11083e-06,1.46988e-05,6.10251e+06,365.664
0.00746,1.00523e-06,0.999963,6.49552e-06,2.98704e-05,6.10251e+06,366.909
0.00748,2.15022e-06,0.999926,1.3201e-05,5.91429e-05,6.10251e+06,368.656
0.0075,4.44772e-06,0.999855,2.60839e-05,0.000113978,6.10251e+06,371.062
0.00752,8.88898e-06,0.999727,5.0053e-05,0.000213574,6.10251e+06,374.308
0.00754,1.71491e-05,0.999501,9.31755e-05,0.000388721,6.10251e+06,378.589
0.00756,3.19113e-05,0.999113,0.000168097,0.000686572,6.10251e+06,384.104
0.00758,5.72387e-05,0.998473,0.000293673,0.0011759,6.10251e+06,391.032
0.0076,9.8935e-05,0.997452,0.000496608,0.00195209,6.10251e+06,399.52
0.00762,0.000164815,0.995881,0.000812823,0.00314093,6.10251e+06,409.659
0.00764,0.000264816,0.993546,0.00128829,0.00490048,6.10251e+06,421.482
0.00766,0.000410909,0.990189,0.00197924,0.00742061,6.10251e+06,434.965
0.00768,0.000616847,0.985511,0.00295171,0.0109208,6.10251e+06,450.036
0.0077,0.00089782,0.979174,0.00428085,0.0156468,6.10251e+06,466.595
0.00772,0.00127013,0.970812,0.00605011,0.0218677,6.10251e+06,484.528
0.00774,0.00175094,0.960025,0.00835072,0.0298731,6.10251e+06,503.722
0.00776,0.00235814,0.946389,0.0112812,0.0399717,6.10251e+06,524.066
0.00778,0.00311032,0.929453,0.0149471,0.0524893,6.10251e+06,545.454
0.0078,0.00402662,0.908747,0.0194602,0.0677658,6.10251e+06,567.775
0.00782,0.0051266,0.883788,0.0249366,0.0861485,6.10251e+06,590.903
0.00784,0.00642962,0.854097,0.0314928,0.10798,6.10251e+06,614.679
0.00786,0.00716302,0.837336,0.0352109,0.12029,6.10251e+06,626.749
0.00788,0.00971417,0.778817,0.0482696,0.163199,6.10251e+06,663.291
0.0079,0.0106862,0.756455,0.0532868,0.179572,6.10251e+06,675.448
0.00792,0.0139712,0.680708,0.0703683,0.234953,6.10251e+06,711.158
0.00794,0.0164538,0.623359,0.0833707,0.276816,6.10251e+06,733.764
0.00796,0.019136,0.561363,0.0974755,0.322026,6.10251e+06,754.871
0.00798,0.0219647,0.49598,0.112387,0.369668,6.10251e+06,774.075
0.008,0.0248661,0.428962,0.127691,0.418481,6.10251e+06,791.095
0.00802,0.0277499,0.362438,0.142879,0.466933,6.10251e+06,805.826
0.00804,0.0305192,0.29869,0.157408,0.513382,6.10251e+06,818.352
0.00806,0.0330834,0.239848,0.170773,0.556295,6.10251e+06,828.915
0.00808,0.0353713,0.187586,0.182582,0.594461,6.10251e+06,837.851
0.0081,0.03734,0.142915,0.192604,0.627141,6.10251e+06,845.513
0.00812,0.0389768,0.106124,0.200784,0.654115,6.10251e+06,852.209
0.00814,0.0402956,0.0768721,0.207216,0.675617,6.10251e+06,858.167
0.00816,0.0413289,0.0543667,0.212097,0.692208,6.10251e+06,863.539
0.00818,0.0421194,0.0375739,0.215677,0.704629,6.10251e+06,868.412
0.0082,0.0424377,0.0309751,0.217062,0.709525,6.10251e+06,870.675
0.00822,0.0431497,0.0167962,0.219964,0.72009,6.10251e+06,876.808
0.00824,0.0433221,0.0135511,0.220604,0.722523,6.10251e+06,878.639
0.00826,0.043701,0.00689683,0.221858,0.727544,6.10251e+06,883.512
0.00828,0.0438692,0.0042846,0.222307,0.729539,6.10251e+06,886.267
0.0083,0.0439918,0.00260836,0.222564,0.730836,6.10251e+06,888.651
0.00832,0.0440821,0.00155684,0.222698,0.731663,6.10251e+06,890.694
0.00834,0.0441493,0.00091477,0.222757,0.732179,6.10251e+06,892.423
0.00836,0.0441987,0.000551712,0.222768,0.732481,6.10251e+06,893.836
0.00838,0.0442393,0.000309504,0.222763,0.732688,6.10251e+06,895.059
0.0084,0.0442711,0.000170121,0.222745,0.732814,6.10251e+06,896.068
0.00842,0.0442964,9.15559e-05,0.222723,0.732889,6.10251e+06,896.894
0.00844,0.0443167,4.82415e-05,0.222701,0.732934,6.10251e+06,897.564
0.00846,0.0443332,2.48856e-05,0.22268,0.732961,6.10251e+06,898.103
0.00848,0.0443466,1.25681e-05,0.222663,0.732978,6.10251e+06,898.534
0.0085,0.0443575,6.21433e-06,0.222649,0.732988,6.10251e+06,898.875
0.00852,0.0443663,3.00844e-06,0.222637,0.732994,6.10251e+06,899.143
0.00854,0.0443701,2.07675e-06,0.222632,0.732996,6.10251e+06,899.254
0.00856,0.0443792,6.62066e-07,0.222621,0.732999,6.10251e+06,899.513
0.00858,0.0443816,4.47626e-07,0.222618,0.733,6.10251e+06,899.579
0.0086,0.0443874,1.34156e-07,0.222611,0.733001,6.10251e+06,899.732
0.00862,0.0443903,5.9578e-08,0.222608,0.733001,6.10251e+06,899.803
0.00864,0.0443925,2.87529e-08,0.222606,0.733001,6.10251e+06,899.854
0.00866,0.0443943,1.18724e-08,0.222604,0.733001,6.10251e+06,899.894
0.00868,0.0443957,4.83295e-09,0.222603,0.733001,6.10251e+06,899.924
0.0087,0.0443968,1.93153e-09,0.222602,0.733001,6.10251e+06,899.946
0.00872,0.0443976,7.56463e-10,0.222602,0.733001,6.10251e+06,899.962
0.00874,0.0443982,2.90075e-10,0.222601,0.733001,6.10251e+06,899.974
0.00876,0.0443987,1.08873e-10,0.222601,0.733001,6.10251e+06,899.982
0.00878,0.044399,3.9995e-11,0.222601,0.733,6.10251e+06,899.988
0.0088,0.0443993,1.43817e-11,0.2226,0.733,6.10251e+06,899.992
0.00882,0.0443995,5.06283e-12,0.2226,0.733,6.10251e+06,899.995
0.00884,0.0443996,1.74501e-12,0.2226,0.733,6.10251e+06,899.997
0.00886,0.0443997,5.88948e-13,0.2226,0.733,6.10251e+06,899.998
0.00888,0.0443998,3.39489e-13,0.2226,0.733,6.10251e+06,899.999
0.0089,0.0443999,6.30932e-14,0.2226,0.733,6.10251e+06,900
0.00892,0.0443999,3.56751e-14,0.2226,0.733,6.10251e+06,900
0.00894,0.0443999,6.3449e-15,0.2226,0.733,6.10251e+06,900
0.00896,0.0444,2.02558e-15,0.2226,0.733,6.10251e+06,900
0.00898,0.0444,6.73109e-16,0.2226,0.733,6.10251e+06,900.001
0.009,0.0444,2.345e-16,0.2226,0.733,6.10251e+06,900.001
0.00902,0.0444,8.38589e-17,0.2226,0.733,6.10251e+06,900.001
0.00904,0.0444,3.01566e-17,0.2226,0.733,6.10251e+06,900.001
0.00906,0.0444,1.08177e-17,0.2226,0.733,6.10251e+06,900.001
0.00908,0.0444,3.82687e-18,0.2226,0.733,6.10251e+06,900.001
0.0091,0.0444,1.33727e-18,0.2226,0.733,6.10251e+06,900.001
0.00912,0.0444,4.61471e-19,0.2226,0.733,6.10251e+06,900.001
0.00914,0.0444,1.57228e-19,0.2226,0.733,6.10251e+06,900.001
0.00916,0.0444,5.28865e-20,0.2226,0.733,6.10251e+06,900.001
0.00918,0.0444,1.75626e-20,0.2226,0.733,6.10251e+06,900.001
0.0092,0.0444,5.7582e-21,0.2226,0.733,6.10251e+06,900
0.00922,0.0444,3.28144e-21,0.2226,0.733,6.10251e+06,900
0.00924,0.0444,5.95884e-22,0.2226,0.733,6.10251e+06,900
0.00926,0.0444,1.88106e-22,0.2226,0.733,6.10251e+06,900
0.00928,0.0444,5.86435e-23,0.2226,0.733,6.10251e+06,900
0.0093,0.0444,1.8057e-23,0.2226,0.733,6.10251e+06,900
0.00932,0.0444,5.49173e-24,0.2226,0.733,6.10251e+06,900
0.00934,0.0444,1.64984e-24,0.2226,0.733,6.10251e+06,900
0.00936,0.0444,4.89638e-25,0.2226,0.733,6.10251e+06,900
0.00938,0.0444,1.43561e-25,0.2226,0.733,6.10251e+06,900
0.0094,0.0444,4.15873e-26,0.2226,0.733,6.10251e+06,900
0.00942,0.0444,1.19035e-26,0.2226,0.733,6.10251e+06,900
0.00944,0.0444,3.36676e-27,0.2226,0.733,6.10251e+06,900
0.00946,0.0444,9.41029e-28,0.2226,0.733,6.10251e+06,900
0.00948,0.0444,2.59942e-28,0.2226,0.733,6.10251e+06,900
0.0095,0.0444,7.09684e-29,0.2226,0.733,6.10251e+06,900
0.00952,0.0444,1.91512e-29,0.2226,0.733,6.10251e+06,900
0.00954,0.0444,5.10858e-30,0.2226,0.733,6.10251e+06,900