x,NH3,C7H16,O2,N2,p,T
0,1.67982e-322,1,3.22229e-220,0,6.10178e+06,363
2e-05,0,1,2.14592e-219,0,6.10178e+06,363
4e-05,1.63042e-322,1,3.95988e-218,0,6.10178e+06,363
6e-05,1.58101e-322,1,2.10205e-216,2.22045e-16,6.10178e+06,363
8e-05,3.45846e-323,1,2.79895e-215,3.33067e-16,6.10178e+06,363
0.0001,0,1,3.66984e-214,4.44089e-16,6.10178e+06,363
0.00012,0,1,4.76795e-213,1.11022e-16,6.10178e+06,363
0.00014,0,1,6.15043e-212,2.22045e-16,6.10178e+06,363
0.00016,0,1,2.20354e-211,2.22045e-16,6.10178e+06,363
0.00018,6.2944e-321,1,1.00378e-209,0,6.10178e+06,363.001
0.0002,1.7149e-319,1,1.27035e-208,3.33067e-16,6.10178e+06,363.001
0.00022,4.47772e-318,1,1.59773e-207,0,6.10178e+06,363.001
0.00024,1.16202e-316,1,1.99703e-206,2.22045e-16,6.10178e+06,363.001
0.00026,3.00005e-315,1,2.48065e-205,9.99201e-16,6.10178e+06,363.001
0.00028,7.70524e-314,1,3.06228e-204,1.22125e-15,6.10178e+06,363.001
0.0003,1.96873e-312,1,3.75684e-203,1.55431e-15,6.10178e+06,363.001
0.00032,9.93201e-312,1,1.3128e-202,1.22125e-15,6.10178e+06,363.001
0.00034,1.2653e-309,1,5.54968e-201,1.22125e-15,6.10178e+06,363.001
0.00036,3.18267e-308,1,6.68239e-200,1.44329e-15,6.10178e+06,363.001
0.00038,7.96375e-307,1,7.99627e-199,1.11022e-15,6.10178e+06,363.001
0.0004,1.98228e-305,1,9.50898e-198,1.22125e-15,6.10178e+06,363.001
0.00042,4.90828e-304,1,1.12375e-196,1.22125e-15,6.10178e+06,363.001
0.00044,1.20895e-302,1,1.31975e-195,9.99201e-16,6.10178e+06,363.001
0.00046,2.96207e-301,1,1.54029e-194,1.33227e-15,6.10178e+06,363.001
0.00048,7.21919e-300,1,1.78647e-193,1.44329e-15,6.10178e+06,363.002
0.0005,1.75018e-298,1,2.05907e-192,1.55431e-15,6.10178e+06,363.002
0.00052,4.22062e-297,1,2.35846e-191,8.88178e-16,6.10178e+06,363.002
0.00054,1.01242e-295,1,2.68451e-190,4.44089e-16,6.10178e+06,363.002
0.00056,2.41567e-294,1,3.03654e-189,1.22125e-15,6.10178e+06,363.002
0.00058,5.73323e-293,1,3.41326e-188,1.66533e-15,6.10178e+06,363.002
0.0006,1.35345e-291,1,3.81271e-187,1.44329e-15,6.10178e+06,363.002
0.00062,3.17806e-290,1,4.23225e-186,1.33227e-15,6.10178e+06,363.002
0.00064,7.42259e-289,1,4.66853e-185,1.44329e-15,6.10178e+06,363.002
0.00066,1.72432e-287,1,5.1175e-184,1.44329e-15,6.10178e+06,363.002
0.00068,3.98424e-286,1,5.57446e-183,1.66533e-15,6.10178e+06,363.002
0.0007,9.15658e-285,1,6.03412e-182,1.33227e-15,6.10178e+06,363.002
0.00072,2.09304e-283,1,6.49067e-181,8.88178e-16,6.10178e+06,363.002
0.00074,4.75856e-282,1,6.93789e-180,1.11022e-15,6.10178e+06,363.002
0.00076,1.07602e-280,1,7.3693e-179,1.11022e-15,6.10178e+06,363.003
0.00078,2.41998e-279,1,7.77828e-178,8.88178e-16,6.10178e+06,363.003
0.0008,5.41306e-278,1,8.15829e-177,1.11022e-15,6.10178e+06,363.003
0.00082,1.20423e-276,1,8.50295e-176,1.44329e-15,6.10178e+06,363.003
0.00084,2.66445e-275,1,8.80632e-175,8.88178e-16,6.10178e+06,363.003
0.00086,5.86319e-274,1,9.06299e-174,1.11022e-15,6.10178e+06,363.003
0.00088,1.28317e-272,1,9.26828e-173,8.88178e-16,6.10178e+06,363.003
0.0009,2.79288e-271,1,9.41836e-172,3.33067e-16,6.10178e+06,363.003
0.00092,6.04554e-270,1,9.51039e-171,2.22045e-16,6.10178e+06,363.003
0.00094,1.30146e-268,1,9.5426e-170,4.44089e-16,6.10178e+06,363.003
0.00096,2.78631e-267,1,9.51435e-169,2.22045e-16,6.10178e+06,363.003
0.00098,5.93243e-266,1,9.42612e-168,3.33067e-16,6.10178e+06,363.003
0.001,1.25613e-264,1,9.27955e-167,2.22045e-16,6.10178e+06,363.003
0.00102,2.64501e-263,1,9.07736e-166,2.22045e-16,6.10178e+06,363.004
0.00104,5.53874e-262,1,8.82325e-165,4.44089e-16,6.10178e+06,363.004
0.00106,1.1534e-260,1,8.52183e-164,2.22045e-16,6.10178e+06,363.004
0.00108,2.38852e-259,1,8.17843e-163,0,6.10178e+06,363.004
0.0011,4.91874e-258,1,7.799e-162,0,6.10178e+06,363.004
0.00112,1.00728e-256,1,7.38988e-161,0,6.10178e+06,363.004
0.00114,2.05124e-255,1,6.95767e-160,6.66134e-16,6.10178e+06,363.004
0.00116,4.15378e-254,1,6.50903e-159,8.88178e-16,6.10178e+06,363.004
0.00118,8.36432e-253,1,6.05054e-158,1.11022e-15,6.10178e+06,363.004
0.0012,1.67483e-251,1,5.58849e-157,9.99201e-16,6.10178e+06,363.004
0.00122,3.33475e-250,1,5.1288e-156,8.88178e-16,6.10178e+06,363.004
0.00124,6.60238e-249,1,4.67688e-155,8.88178e-16,6.10178e+06,363.004
0.00126,1.29981e-247,1,4.23754e-154,1.11022e-15,6.10178e+06,363.005
0.00128,2.54445e-246,1,3.81495e-153,7.77156e-16,6.10178e+06,363.005
0.0013,4.95268e-245,1,3.41253e-152,7.77156e-16,6.10178e+06,363.005
0.00132,9.58551e-244,1,3.03304e-151,7.77156e-16,6.10178e+06,363.005
0.00134,1.84465e-242,1,2.67849e-150,6.66134e-16,6.10178e+06,363.005
0.00136,3.52964e-241,1,2.35023e-149,7.77156e-16,6.10178e+06,363.005
0.00138,6.71525e-240,1,2.04898e-148,4.44089e-16,6.10178e+06,363.005
0.0014,1.27029e-238,1,1.77489e-147,1.11022e-16,6.10178e+06,363.005
0.00142,2.38918e-237,1,1.5276e-146,0,6.10178e+06,363.005
0.00144,4.46783e-236,1,1.30632e-145,1.11022e-16,6.10178e+06,363.005
0.00146,8.30691e-235,1,1.10991e-144,6.66134e-16,6.10178e+06,363.005
0.00148,1.53558e-233,1,9.36973e-144,3.33067e-16,6.10178e+06,363.005
0.0015,2.82225e-232,1,7.85892e-143,5.55112e-16,6.10178e+06,363.006
0.00152,5.15702e-231,1,6.54928e-142,1.22125e-15,6.10178e+06,363.006
0.00154,9.36872e-230,1,5.42273e-141,1.11022e-15,6.10178e+06,363.006
0.00156,1.69213e-228,1,4.46102e-140,4.44089e-16,6.10178e+06,363.006
0.00158,3.03849e-227,1,3.6462e-139,1.11022e-16,6.10178e+06,363.006
0.0016,5.42431e-226,1,2.96098e-138,0,6.10178e+06,363.006
0.00162,9.62697e-225,1,2.389e-137,3.33067e-16,6.10178e+06,363.006
0.00164,1.69859e-223,1,1.91506e-136,0,6.10178e+06,363.006
0.00166,2.97947e-222,1,1.52522e-135,1.11022e-16,6.10178e+06,363.006
0.00168,5.19557e-221,1,1.20688e-134,1.11022e-16,6.10178e+06,363.006
0.0017,9.00673e-220,1,9.48799e-134,1.11022e-16,6.10178e+06,363.006
0.00172,1.55216e-218,1,7.41076e-133,0,6.10178e+06,363.007
0.00174,2.65911e-217,1,5.7508e-132,0,6.10178e+06,363.007
0.00176,4.52858e-216,1,4.43372e-131,0,6.10178e+06,363.007
0.00178,7.6667e-215,1,3.3961e-130,0,6.10178e+06,363.007
0.0018,1.29024e-213,1,2.58443e-129,3.33067e-16,6.10178e+06,363.007
0.00182,2.15846e-212,1,1.95397e-128,3.33067e-16,6.10178e+06,363.007
0.00184,3.58942e-211,1,1.46771e-127,1.11022e-16,6.10178e+06,363.007
0.00186,5.93342e-210,1,1.09528e-126,1.11022e-16,6.10178e+06,363.007
0.00188,9.74949e-209,1,8.1204e-126,0,6.10178e+06,363.007
0.0019,1.59239e-207,1,5.98125e-125,2.22045e-16,6.10178e+06,363.007
0.00192,2.58527e-206,1,4.3769e-124,2.22045e-16,6.10178e+06,363.008
0.00194,4.17197e-205,1,3.182e-123,0,6.10178e+06,363.008
0.00196,6.69196e-204,1,2.29822e-122,1.11022e-16,6.10178e+06,363.008
0.00198,1.06693e-202,1,1.64907e-121,2.22045e-16,6.10178e+06,363.008
0.002,1.69078e-201,1,1.17555e-120,1.11022e-16,6.10178e+06,363.008
0.00202,2.66315e-200,1,8.32517e-120,1.11022e-16,6.10178e+06,363.008
0.00204,4.16929e-199,1,5.85729e-119,2.22045e-16,6.10178e+06,363.008
0.00206,1.64589e-198,1,1.54981e-118,6.66134e-16,6.10178e+06,363.008
0.00208,1.00332e-196,1,2.84281e-117,0,6.10178e+06,363.008
0.0021,1.5422e-195,1,1.96107e-116,0,6.10178e+06,363.008
0.00212,2.35601e-194,1,1.34394e-115,0,6.10178e+06,363.009
0.00214,3.57718e-193,1,9.14977e-115,0,6.10178e+06,363.009
0.00216,5.39796e-192,1,6.18842e-114,0,6.10178e+06,363.009
0.00218,8.09536e-191,1,4.15803e-113,0,6.10178e+06,363.009
0.0022,1.20658e-189,1,2.77544e-112,0,6.10178e+06,363.009
0.00222,1.78724e-188,1,1.8404e-111,3.33067e-16,6.10178e+06,363.009
0.00224,2.63093e-187,1,1.21234e-110,3.33067e-16,6.10178e+06,363.009
0.00226,3.84887e-186,1,7.93354e-110,3.33067e-16,6.10178e+06,363.009
0.00228,5.5956e-185,1,5.15751e-109,6.66134e-16,6.10178e+06,363.009
0.0023,8.08433e-184,1,3.33074e-108,7.77156e-16,6.10178e+06,363.01
0.00232,1.1607e-182,1,2.13681e-107,6.66134e-16,6.10178e+06,363.01
0.00234,1.65603e-181,1,1.36181e-106,1.11022e-16,6.10178e+06,363.01
0.00236,2.34791e-180,1,8.62164e-106,0,6.10178e+06,363.01
0.00238,3.30793e-179,1,5.42229e-105,1.11022e-16,6.10178e+06,363.01
0.0024,4.63111e-178,1,3.38762e-104,2.22045e-16,6.10178e+06,363.01
0.00242,6.44261e-177,1,2.10244e-103,2.22045e-16,6.10178e+06,363.01
0.00244,8.90593e-176,1,1.29619e-102,7.77156e-16,6.10178e+06,363.01
0.00246,1.2233e-174,1,7.93826e-102,1.33227e-15,6.10178e+06,363.01
0.00248,1.6696e-173,1,4.82941e-101,8.88178e-16,6.10178e+06,363.011
0.0025,2.26421e-172,1,2.91859e-100,9.99201e-16,6.10178e+06,363.011
0.00252,3.05094e-171,1,1.7521e-99,6.66134e-16,6.10178e+06,363.011
0.00254,4.08471e-170,1,1.04485e-98,7.77156e-16,6.10178e+06,363.011
0.00256,5.43362e-169,1,6.1894e-98,3.33067e-16,6.10178e+06,363.011
0.00258,7.18144e-168,1,3.64207e-97,2.22045e-16,6.10178e+06,363.011
0.0026,9.43022e-167,1,2.12886e-96,1.11022e-16,6.10178e+06,363.011
0.00262,1.23031e-165,1,1.23608e-95,1.11022e-16,6.10178e+06,363.011
0.00264,1.59469e-164,1,7.12921e-95,5.55112e-16,6.10178e+06,363.012
0.00266,2.05356e-163,1,4.08443e-94,1.11022e-16,6.10178e+06,363.012
0.00268,2.62721e-162,1,2.32442e-93,4.44089e-16,6.10178e+06,363.012
0.0027,3.33913e-161,1,1.31398e-92,3.33067e-16,6.10178e+06,363.012
0.00272,4.21615e-160,1,7.37825e-92,3.33067e-16,6.10178e+06,363.012
0.00274,5.28851e-159,1,4.11533e-91,8.88178e-16,6.10178e+06,363.012
0.00276,6.5899e-158,1,2.28004e-90,7.77156e-16,6.10178e+06,363.012
0.00278,8.15726e-157,1,1.25476e-89,8.88178e-16,6.10178e+06,363.012
0.0028,1.00305e-155,1,6.85906e-89,7.77156e-16,6.10178e+06,363.012
0.00282,1.22519e-154,1,3.72431e-88,1.11022e-15,6.10178e+06,363.013
0.00284,1.48655e-153,1,2.00866e-87,6.66134e-16,6.10178e+06,363.013
0.00286,1.79161e-152,1,1.07607e-86,1.11022e-15,6.10178e+06,363.013
0.00288,2.14479e-151,1,5.72601e-86,5.55112e-16,6.10178e+06,363.013
0.0029,2.55035e-150,1,3.02645e-85,2.22045e-16,6.10178e+06,363.013
0.00292,3.01214e-149,1,1.58886e-84,0,6.10178e+06,363.013
0.00294,3.5335e-148,1,8.28525e-84,1.11022e-16,6.10178e+06,363.013
0.00296,4.117e-147,1,4.29133e-83,1.11022e-16,6.10178e+06,363.014
0.00298,4.76423e-146,1,2.20771e-82,0,6.10178e+06,363.014
0.003,5.47561e-145,1,1.12812e-81,4.44089e-16,6.10178e+06,363.014
0.00302,6.25018e-144,1,5.72568e-81,1.11022e-16,6.10178e+06,363.014
0.00304,7.08538e-143,1,2.88641e-80,0,6.10178e+06,363.014
0.00306,7.97693e-142,1,1.44525e-79,0,6.10178e+06,363.014
0.00308,8.91872e-141,1,7.18761e-79,1.11022e-16,6.10178e+06,363.014
0.0031,9.9027e-140,1,3.5504e-78,1.11022e-16,6.10178e+06,363.014
0.00312,1.09189e-138,1,1.74188e-77,4.44089e-16,6.10178e+06,363.015
0.00314,1.19557e-137,1,8.48808e-77,1.11022e-16,6.10178e+06,363.015
0.00316,1.29996e-136,1,4.10814e-76,3.33067e-16,6.10178e+06,363.015
0.00318,1.40357e-135,1,1.97481e-75,1.11022e-16,6.10178e+06,363.015
0.0032,1.5048e-134,1,9.42857e-75,0,6.10178e+06,363.015
0.00322,1.60198e-133,1,4.47102e-74,2.22045e-16,6.10178e+06,363.015
0.00324,1.6934e-132,1,2.10574e-73,3.33067e-16,6.10178e+06,363.015
0.00326,1.77737e-131,1,9.85001e-73,3.33067e-16,6.10178e+06,363.016
0.00328,1.85227e-130,1,4.57618e-72,2.22045e-16,6.10178e+06,363.016
0.0033,1.91659e-129,1,2.11154e-71,0,6.10178e+06,363.016
0.00332,1.969e-128,1,9.67663e-71,1.11022e-16,6.10178e+06,363.016
0.00334,2.00838e-127,1,4.40429e-70,1.11022e-16,6.10178e+06,363.016
0.00336,2.03385e-126,1,1.99091e-69,1.11022e-16,6.10178e+06,363.016
0.00338,2.04483e-125,1,8.93818e-69,9.99201e-16,6.10178e+06,363.016
0.0034,2.04106e-124,1,3.98535e-68,9.99201e-16,6.10178e+06,363.016
0.00342,2.02257e-123,1,1.76482e-67,8.88178e-16,6.10178e+06,363.017
0.00344,1.98972e-122,1,7.76161e-67,1.33227e-15,6.10178e+06,363.017
0.00346,1.94319e-121,1,3.39012e-66,5.55112e-16,6.10178e+06,363.017
0.00348,1.88393e-120,1,1.47058e-65,5.55112e-16,6.10178e+06,363.017
0.0035,1.81315e-119,1,6.33535e-65,5.55112e-16,6.10178e+06,363.017
0.00352,1.73226e-118,1,2.71056e-64,3.33067e-16,6.10178e+06,363.017
0.00354,1.64284e-117,1,1.15173e-63,7.77156e-16,6.10178e+06,363.017
0.00356,1.54658e-116,1,4.86007e-63,5.55112e-16,6.10178e+06,363.018
0.00358,1.44523e-115,1,2.03674e-62,6.66134e-16,6.10178e+06,363.018
0.0036,1.34054e-114,1,8.47663e-62,4.44089e-16,6.10178e+06,363.018
0.00362,1.23423e-113,1,3.50353e-61,6.66134e-16,6.10178e+06,363.018
0.00364,1.12791e-112,1,1.43807e-60,7.77156e-16,6.10178e+06,363.018
0.00366,1.02308e-111,1,5.86197e-60,2.22045e-16,6.10178e+06,363.018
0.00368,9.21072e-111,1,2.37298e-59,5.55112e-16,6.10178e+06,363.019
0.0037,8.23033e-110,1,9.53957e-59,6.66134e-16,6.10178e+06,363.019
0.00372,7.29916e-109,1,3.80843e-58,9.99201e-16,6.10178e+06,363.019
0.00374,6.42469e-108,1,1.50988e-57,1.22125e-15,6.10178e+06,363.019
0.00376,5.61238e-107,1,5.94449e-57,1.77636e-15,6.10178e+06,363.019
0.00378,4.86574e-106,1,2.32414e-56,7.77156e-16,6.10178e+06,363.019
0.0038,4.18647e-105,1,9.02362e-56,1.11022e-15,6.10178e+06,363.019
0.00382,3.57467e-104,1,3.47912e-55,2.22045e-16,6.10178e+06,363.02
0.00384,3.02904e-103,1,1.33206e-54,6.66134e-16,6.10178e+06,363.02
0.00386,2.54708e-102,1,5.06457e-54,9.99201e-16,6.10178e+06,363.02
0.00388,2.1254e-101,1,1.91215e-53,6.66134e-16,6.10178e+06,363.02
0.0039,1.75991e-100,1,7.16904e-53,7.77156e-16,6.10178e+06,363.02
0.00392,1.44604e-99,1,2.66905e-52,7.77156e-16,6.10178e+06,363.02
0.00394,1.17895e-98,1,9.86743e-52,5.55112e-16,6.10178e+06,363.021
0.00396,9.53745e-98,1,3.62245e-51,1.22125e-15,6.10178e+06,363.021
0.00398,7.6555e-97,1,1.32053e-50,6.66134e-16,6.10178e+06,363.021
0.004,6.0969e-96,1,4.78014e-50,8.88178e-16,6.10178e+06,363.021
0.00402,4.81754e-95,1,1.71821e-49,4.44089e-16,6.10178e+06,363.021
0.00404,3.77668e-94,1,6.13266e-49,4.44089e-16,6.10178e+06,363.021
0.00406,2.93731e-93,1,2.1735e-48,2.22045e-16,6.10178e+06,363.021
0.00408,2.26637e-92,1,7.64898e-48,0,6.10178e+06,363.022
0.0041,1.73475e-91,1,2.67288e-47,0,6.10178e+06,363.022
0.00412,4.785e-91,1,4.98328e-47,0,6.10178e+06,363.022
0.00414,9.92123e-90,1,3.1953e-46,4.44089e-16,6.10178e+06,363.022
0.00416,7.41235e-89,1,1.09311e-45,6.66134e-16,6.10178e+06,363.022
0.00418,5.49299e-88,1,3.71307e-45,6.66134e-16,6.10178e+06,363.022
0.0042,4.03743e-87,1,1.25234e-44,8.88178e-16,6.10178e+06,363.023
0.00422,2.94326e-86,1,4.19393e-44,9.99201e-16,6.10178e+06,363.023
0.00424,2.12793e-85,1,1.39454e-43,4.44089e-16,6.10178e+06,363.023
0.00426,1.52573e-84,1,4.60417e-43,3.33067e-16,6.10178e+06,363.023
0.00428,1.08484e-83,1,1.50929e-42,6.66134e-16,6.10178e+06,363.023
0.0043,7.64891e-83,1,4.91245e-42,1.44329e-15,6.10178e+06,363.023
0.00432,5.34764e-82,1,1.58753e-41,5.55112e-16,6.10178e+06,363.024
0.00434,3.70707e-81,1,5.09376e-41,1.11022e-16,6.10178e+06,363.024
0.00436,2.54791e-80,1,1.62273e-40,6.66134e-16,6.10178e+06,363.024
0.00438,1.73619e-79,1,5.1327e-40,3.33067e-16,6.10178e+06,363.024
0.0044,1.17287e-78,1,1.61187e-39,2.22045e-16,6.10178e+06,363.024
0.00442,7.85451e-78,1,5.02569e-39,6.66134e-16,6.10178e+06,363.024
0.00444,5.2141e-77,1,1.55575e-38,9.99201e-16,6.10178e+06,363.025
0.00446,1.33898e-76,1,2.72987e-38,6.66134e-16,6.10178e+06,363.025
0.00448,2.23759e-75,1,1.459e-37,6.66134e-16,6.10178e+06,363.025
0.0045,1.44634e-74,1,4.41995e-37,9.99201e-16,6.10178e+06,363.025
0.00452,9.2652e-74,1,1.32937e-36,1.11022e-15,6.10178e+06,363.025
0.00454,5.88177e-73,1,3.96951e-36,7.77156e-16,6.10178e+06,363.025
0.00456,3.70002e-72,1,1.17676e-35,8.88178e-16,6.10178e+06,363.026
0.00458,2.30631e-71,1,3.46332e-35,9.99201e-16,6.10178e+06,363.026
0.0046,1.42438e-70,1,1.01193e-34,1.22125e-15,6.10178e+06,363.026
0.00462,8.7156e-70,1,2.93533e-34,4.44089e-16,6.10178e+06,363.026
0.00464,5.28336e-69,1,8.45296e-34,0,6.10178e+06,363.026
0.00466,3.17276e-68,1,2.41659e-33,2.22045e-16,6.10178e+06,363.027
0.00468,1.88736e-67,1,6.85858e-33,6.66134e-16,6.10178e+06,363.027
0.0047,1.11207e-66,1,1.93241e-32,8.88178e-16,6.10178e+06,363.027
0.00472,6.49007e-66,1,5.40502e-32,7.77156e-16,6.10178e+06,363.027
0.00474,3.75126e-65,1,1.5008e-31,3.33067e-16,6.10178e+06,363.027
0.00476,2.14729e-64,1,4.13685e-31,5.55112e-16,6.10178e+06,363.027
0.00478,1.21721e-63,1,1.13198e-30,2.22045e-16,6.10178e+06,363.028
0.0048,6.83243e-63,1,3.07484e-30,0,6.10178e+06,363.028
0.00482,3.79749e-62,1,8.29123e-30,0,6.10178e+06,363.028
0.00484,2.08979e-61,1,2.21934e-29,4.44089e-16,6.10178e+06,363.028
0.00486,1.1386e-60,1,5.89705e-29,3.33067e-16,6.10178e+06,363.028
0.00488,6.14152e-60,1,1.55542e-28,1.11022e-15,6.10178e+06,363.028
0.0049,3.2794e-59,1,4.07245e-28,3.33067e-16,6.10178e+06,363.029
0.00492,1.73342e-58,1,1.05842e-27,0,6.10178e+06,363.029
0.00494,9.06939e-58,1,2.73055e-27,1.11022e-16,6.10178e+06,363.029
0.00496,4.69675e-57,1,6.99242e-27,3.33067e-16,6.10178e+06,363.029
0.00498,2.40734e-56,1,1.77741e-26,4.44089e-16,6.10178e+06,363.029
0.005,1.22118e-55,1,4.4846e-26,8.88178e-16,6.10178e+06,363.03
0.00502,6.13051e-55,1,1.12314e-25,8.88178e-16,6.10178e+06,363.03
0.00504,3.04559e-54,1,2.792e-25,7.77156e-16,6.10178e+06,363.03
0.00506,1.49721e-53,1,6.88907e-25,1.33227e-15,6.10178e+06,363.03
0.00508,7.283e-53,1,1.68721e-24,7.77156e-16,6.10178e+06,363.03
0.0051,3.50537e-52,1,4.10141e-24,1.22125e-15,6.10178e+06,363.03
0.00512,7.65971e-52,1,6.37674e-24,1.44329e-15,6.10178e+06,363.031
0.00514,7.86487e-51,1,2.36984e-23,1.44329e-15,6.10178e+06,363.031
0.00516,3.66597e-50,1,5.6329e-23,8.88178e-16,6.10178e+06,363.031
0.00518,1.69048e-49,1,1.32888e-22,0,6.10178e+06,363.031
0.0052,7.71141e-49,1,3.11155e-22,8.88178e-16,6.10178e+06,363.031
0.00522,3.47974e-48,1,7.23101e-22,1.44329e-15,6.10178e+06,363.032
0.00524,1.55322e-47,1,1.66782e-21,8.88178e-16,6.10178e+06,363.032
0.00526,6.85763e-47,1,3.8179e-21,1.44329e-15,6.10178e+06,363.032
0.00528,2.99474e-46,1,8.67399e-21,1.9984e-15,6.10178e+06,363.032
0.0053,1.29351e-45,1,1.95582e-20,7.77156e-16,6.10178e+06,363.032
0.00532,5.52583e-45,1,4.37672e-20,8.88178e-16,6.10178e+06,363.033
0.00534,2.33467e-44,1,9.72023e-20,1.22125e-15,6.10178e+06,363.033
0.00536,9.75538e-44,1,2.14243e-19,8.88178e-16,6.10178e+06,363.033
0.00538,4.03126e-43,1,4.68634e-19,7.77156e-16,6.10178e+06,363.033
0.0054,1.64742e-42,1,1.01731e-18,1.11022e-15,6.10178e+06,363.033
0.00542,6.65774e-42,1,2.19162e-18,2.22045e-16,6.10178e+06,363.033
0.00544,2.66071e-41,1,4.68555e-18,2.22045e-16,6.10178e+06,363.034
0.00546,1.0515e-40,1,9.94114e-18,6.66134e-16,6.10178e+06,363.034
0.00548,4.10919e-40,1,2.09309e-17,8.88178e-16,6.10178e+06,363.034
0.0055,1.58793e-39,1,4.37332e-17,7.77156e-16,6.10178e+06,363.034
0.00552,6.06773e-39,1,9.06779e-17,8.88178e-16,6.10178e+06,363.034
0.00554,2.29267e-38,1,1.86575e-16,7.77156e-16,6.10178e+06,363.035
0.00556,8.56586e-38,1,3.80948e-16,1.44329e-15,6.10178e+06,363.035
0.00558,3.16457e-37,1,7.71847e-16,2.66454e-15,6.10178e+06,363.035
0.0056,1.15604e-36,1,1.55184e-15,6.88338e-15,6.10178e+06,363.035
0.00562,4.17582e-36,1,3.09604e-15,1.75415e-14,6.10178e+06,363.035
0.00564,1.49151e-35,1,6.12926e-15,3.79696e-14,6.10178e+06,363.036
0.00566,5.26784e-35,1,1.20405e-14,7.68274e-14,6.10178e+06,363.036
0.00568,1.83977e-34,1,2.34702e-14,1.50324e-13,6.10178e+06,363.036
0.0057,6.35366e-34,1,4.53956e-14,2.86327e-13,6.10178e+06,363.036
0.00572,2.16983e-33,1,8.71236e-14,5.40901e-13,6.10178e+06,363.036
0.00574,7.32785e-33,1,1.65912e-13,1.01308e-12,6.10178e+06,363.036
0.00576,2.44732e-32,1,3.13497e-13,1.88149e-12,6.10178e+06,363.037
0.00578,8.08321e-32,1,5.87763e-13,3.46823e-12,6.10178e+06,363.037
0.0058,2.6404e-31,1,1.0934e-12,6.34104e-12,6.10178e+06,363.037
0.00582,8.53043e-31,1,2.01816e-12,1.15047e-11,6.10178e+06,363.037
0.00584,2.72588e-30,1,3.69602e-12,2.07179e-11,6.10178e+06,363.037
0.00586,8.61592e-30,1,6.71597e-12,3.70289e-11,6.10178e+06,363.038
0.00588,2.69391e-29,1,1.21081e-11,6.56805e-11,6.10178e+06,363.038
0.0059,8.33264e-29,1,2.16585e-11,1.15622e-10,6.10178e+06,363.038
0.00592,2.54994e-28,1,3.84386e-11,2.02009e-10,6.10178e+06,363.038
0.00594,7.72082e-28,1,6.76842e-11,3.50284e-10,6.10178e+06,363.038
0.00596,2.31323e-27,1,1.18246e-10,6.02821e-10,6.10178e+06,363.039
0.00598,6.85868e-27,1,2.04954e-10,1.02961e-09,6.10178e+06,363.039
0.006,2.01266e-26,1,3.52451e-10,1.7453e-09,6.10178e+06,363.039
0.00602,5.84595e-26,1,6.01322e-10,2.93612e-09,6.10178e+06,363.04
0.00604,1.68091e-25,1,1.01784e-09,4.90206e-09,6.10178e+06,363.04
0.00606,4.78509e-25,1,1.70925e-09,8.12231e-09,6.10178e+06,363.04
0.00608,1.34879e-24,1,2.84763e-09,1.33557e-08,6.10178e+06,363.041
0.0061,3.765e-24,1,4.70658e-09,2.17938e-08,6.10178e+06,363.042
0.00612,1.04089e-23,1,7.71717e-09,3.52908e-08,6.10178e+06,363.043
0.00614,2.85052e-23,1,1.25524e-08,5.67069e-08,6.10178e+06,363.044
0.00616,7.73359e-23,1,2.02532e-08,9.04132e-08,6.10178e+06,363.046
0.00618,2.07891e-22,1,3.24135e-08,1.43026e-07,6.10178e+06,363.048
0.0062,5.53789e-22,1,5.14499e-08,2.24463e-07,6.10178e+06,363.052
0.00622,1.46208e-21,1,8.09863e-08,3.49424e-07,6.10178e+06,363.057
0.00624,3.82625e-21,0.999999,1.26395e-07,5.3946e-07,6.10178e+06,363.063
0.00626,9.92686e-21,0.999999,1.95535e-07,8.25749e-07,6.10178e+06,363.072
0.00628,2.55357e-20,0.999998,2.99743e-07,1.25275e-06,6.10178e+06,363.083
0.0063,6.51393e-20,0.999998,4.55089e-07,1.88281e-06,6.10178e+06,363.099
0.00632,1.64802e-19,0.999997,6.83893e-07,2.80152e-06,6.10178e+06,363.119
0.00634,4.13604e-19,0.999995,1.01637e-06,4.12353e-06,6.10178e+06,363.146
0.00636,1.02993e-18,0.999993,1.49211e-06,5.99736e-06,6.10178e+06,363.181
0.00638,2.54568e-18,0.999989,2.16071e-06,8.60727e-06,6.10178e+06,363.225
0.0064,6.25015e-18,0.999985,3.08064e-06,1.21684e-05,6.10178e+06,363.281
0.00642,1.52672e-17,0.999979,4.31498e-06,1.69115e-05,6.10178e+06,363.351
0.00644,3.7237e-17,0.999971,5.92379e-06,2.30562e-05,6.10178e+06,363.436
0.00646,9.14542e-17,0.999961,7.95662e-06,3.07872e-05,6.10178e+06,363.54
0.00648,2.30795e-16,0.999949,1.04624e-05,4.02962e-05,6.10178e+06,363.665
0.0065,6.27568e-16,0.999934,1.35652e-05,5.20599e-05,6.10178e+06,363.818
0.00652,1.9907e-15,0.999915,1.76391e-05,6.74664e-05,6.10178e+06,364.017
0.00654,7.44272e-15,0.999888,2.32533e-05,8.86143e-05,6.10178e+06,364.28
0.00656,2.97433e-14,0.999852,3.09031e-05,0.000117321,6.10178e+06,364.623
0.00658,1.1864e-13,0.999803,4.11646e-05,0.000155689,6.10178e+06,365.064
0.0066,4.61683e-13,0.999738,5.48441e-05,0.000206658,6.10178e+06,365.628
0.00662,1.74146e-12,0.999653,7.30328e-05,0.000274196,6.10178e+06,366.347
0.00664,6.35302e-12,0.999539,9.71763e-05,0.000363549,6.10178e+06,367.26
0.00666,2.23882e-11,0.999389,0.000129176,0.000481598,6.10178e+06,368.414
0.00668,7.61354e-11,0.999191,0.00017152,0.000637331,6.10178e+06,369.868
0.0067,2.49586e-10,0.99893,0.000227462,0.000842459,6.10178e+06,371.687
0.00672,7.87821e-10,0.998587,0.000301233,0.00111218,6.10178e+06,373.951
0.00674,2.39155e-09,0.998136,0.000398323,0.00146615,6.10178e+06,376.744
0.00676,6.97305e-09,0.997545,0.000525813,0.00192961,6.10178e+06,380.161
0.00678,1.95031e-08,0.996772,0.000692782,0.0025348,6.10178e+06,384.301
0.0068,5.22616e-08,0.995767,0.000910776,0.00332251,6.10178e+06,389.261
0.00682,1.34023e-07,0.994462,0.00119434,0.00434376,6.10178e+06,395.135
0.00684,3.28622e-07,0.992777,0.00156157,0.00566159,6.10178e+06,402.003
0.00686,7.69939e-07,0.990612,0.00203471,0.00735275,6.10178e+06,409.933
0.00688,1.72318e-06,0.987848,0.00264066,0.00950916,6.10178e+06,418.971
0.0069,3.68436e-06,0.984346,0.00341146,0.0122391,6.10178e+06,429.141
0.00692,7.52948e-06,0.97994,0.00438466,0.0156678,6.10178e+06,440.45
0.00694,1.47207e-05,0.974444,0.00560355,0.0199379,6.10178e+06,452.883
0.00696,2.75676e-05,0.967646,0.00711728,0.0252088,6.10178e+06,466.417
0.00698,4.95288e-05,0.959313,0.00898086,0.0316563,6.10178e+06,481.017
0.007,8.55249e-05,0.949188,0.011255,0.0394716,6.10178e+06,496.645
0.00702,0.000142224,0.936992,0.0140058,0.0488596,6.10178e+06,513.259
0.00704,0.000228252,0.92243,0.0173044,0.0600372,6.10178e+06,530.816
0.00706,0.000354294,0.905189,0.0212261,0.0732307,6.10178e+06,549.269
0.00708,0.000533049,0.884946,0.0258493,0.0886716,6.10178e+06,568.559
0.0071,0.000779024,0.861377,0.0312532,0.106591,6.10178e+06,588.615
0.00712,0.00110817,0.834168,0.0375151,0.127208,6.10178e+06,609.338
0.00714,0.00153732,0.803036,0.0447055,0.150722,6.10178e+06,630.598
0.00716,0.00208352,0.767751,0.0528817,0.177284,6.10178e+06,652.222
0.00718,0.00276308,0.728176,0.0620791,0.206982,6.10178e+06,673.986
0.0072,0.00359043,0.684307,0.0723001,0.239802,6.10178e+06,695.621
0.00722,0.00457682,0.63632,0.0835023,0.275601,6.10178e+06,716.812
0.00724,0.00572869,0.584622,0.0955857,0.314063,6.10178e+06,737.218
0.00726,0.00704613,0.529888,0.108383,0.354683,6.10178e+06,756.501
0.00728,0.00852144,0.473075,0.121656,0.396748,6.10178e+06,774.355
0.0073,0.0101383,0.415401,0.135102,0.439358,6.10178e+06,790.55
0.00732,0.0118719,0.358276,0.148372,0.48148,6.10178e+06,804.954
0.00734,0.0136906,0.303182,0.161101,0.522027,6.10178e+06,817.55
0.00736,0.0155583,0.251522,0.172947,0.559973,6.10178e+06,828.427
0.00738,0.0174383,0.204473,0.18363,0.594459,6.10178e+06,837.757
0.0074,0.0192969,0.162865,0.19296,0.624879,6.10178e+06,845.755
0.00742,0.0211062,0.127119,0.20085,0.650925,6.10178e+06,852.645
0.00744,0.0228455,0.0972611,0.207312,0.672582,6.10178e+06,858.631
0.00746,0.024502,0.0729817,0.212438,0.690078,6.10178e+06,863.884
0.00748,0.0260693,0.0537349,0.216375,0.70382,6.10178e+06,868.531
0.0075,0.0275463,0.0388402,0.219299,0.714314,6.10178e+06,872.668
0.00752,0.0289352,0.0275727,0.221391,0.722101,6.10178e+06,876.359
0.00754,0.0302401,0.0192315,0.222824,0.727705,6.10178e+06,879.651
0.00756,0.0314658,0.0131829,0.223751,0.7316,6.10178e+06,882.578
0.00758,0.032617,0.00888335,0.224303,0.734197,6.10178e+06,885.169
0.0076,0.0336977,0.0058856,0.224584,0.735832,6.10178e+06,887.448
0.00762,0.0347113,0.00383405,0.224679,0.736775,6.10178e+06,889.44
0.00764,0.0356594,0.00245983,0.22465,0.737231,6.10178e+06,891.166
0.00766,0.0365457,0.00155016,0.224543,0.737361,6.10178e+06,892.654
0.00768,0.0373712,0.000960095,0.224393,0.737276,6.10178e+06,893.926
0.0077,0.0381368,0.000584648,0.224221,0.737057,6.10178e+06,895.007
0.00772,0.0388439,0.000350018,0.224044,0.736762,6.10178e+06,895.917
0.00774,0.0394937,0.000205996,0.22387,0.73643,6.10178e+06,896.68
0.00776,0.0400879,0.000119168,0.223706,0.736087,6.10178e+06,897.314
0.00778,0.0406283,6.77569e-05,0.223556,0.735748,6.10178e+06,897.839
0.0078,0.041117,3.78629e-05,0.22342,0.735425,6.10178e+06,898.27
0.00782,0.0415564,2.07927e-05,0.223299,0.735124,6.10178e+06,898.622
0.00784,0.0419492,1.12208e-05,0.223192,0.734847,6.10178e+06,898.908
0.00786,0.0421291,8.18899e-06,0.223144,0.734718,6.10178e+06,899.03
0.00788,0.0426069,3.1004e-06,0.223019,0.734371,6.10178e+06,899.326
0.0079,0.0427468,2.2233e-06,0.222983,0.734268,6.10178e+06,899.405
0.00792,0.0431144,7.98482e-07,0.22289,0.733995,6.10178e+06,899.594
0.00794,0.0433197,3.94642e-07,0.22284,0.73384,6.10178e+06,899.688
0.00796,0.0434969,1.91634e-07,0.222797,0.733706,6.10178e+06,899.762
0.00798,0.0436489,9.14245e-08,0.222762,0.733589,6.10178e+06,899.821
0.008,0.0437786,4.28519e-08,0.222732,0.73349,6.10178e+06,899.867
0.00802,0.0438885,1.97328e-08,0.222707,0.733405,6.10178e+06,899.903
0.00804,0.0439811,8.92722e-09,0.222686,0.733333,6.10178e+06,899.931
0.00806,0.0440588,3.96778e-09,0.222669,0.733272,6.10178e+06,899.953
0.00808,0.0441235,1.73254e-09,0.222655,0.733221,6.10178e+06,899.97
0.0081,0.0441771,7.43223e-10,0.222644,0.733179,6.10178e+06,899.983
0.00812,0.0442212,3.13226e-10,0.222635,0.733144,6.10178e+06,899.993
0.00814,0.0442573,1.29687e-10,0.222627,0.733115,6.10178e+06,900
0.00816,0.0442868,5.2752e-11,0.222622,0.733092,6.10178e+06,900.006
0.00818,0.0443106,2.10807e-11,0.222617,0.733073,6.10178e+06,900.01
0.0082,0.0443207,1.3238e-11,0.222615,0.733064,6.10178e+06,900.012
0.00822,0.0443451,3.19232e-12,0.22261,0.733045,6.10178e+06,900.016
0.00824,0.0443516,1.96952e-12,0.222609,0.73304,6.10178e+06,900.017
0.00826,0.044367,4.50449e-13,0.222606,0.733027,6.10178e+06,900.019
0.00828,0.0443746,1.64826e-13,0.222605,0.733021,6.10178e+06,900.02
0.0083,0.0443806,5.93012e-14,0.222603,0.733016,6.10178e+06,900.02
0.00832,0.0443852,2.10091e-14,0.222603,0.733012,6.10178e+06,900.02
0.00834,0.0443888,7.35925e-15,0.222602,0.733009,6.10178e+06,900.02
0.00836,0.0443915,2.57345e-15,0.222601,0.733007,6.10178e+06,900.02
0.00838,0.0443936,9.11964e-16,0.222601,0.733005,6.10178e+06,900.02
0.0084,0.0443952,3.30265e-16,0.222601,0.733004,6.10178e+06,900.02
0.00842,0.0443964,1.21326e-16,0.222601,0.733003,6.10178e+06,900.02
0.00844,0.0443973,4.46586e-17,0.2226,0.733002,6.10178e+06,900.019
0.00846,0.044398,1.63377e-17,0.2226,0.733002,6.10178e+06,900.019
0.00848,0.0443985,5.92468e-18,0.2226,0.733001,6.10178e+06,900.018
0.0085,0.0443989,2.12217e-18,0.2226,0.733001,6.10178e+06,900.018
0.00852,0.0443992,7.5112e-19,0.2226,0.733001,6.10178e+06,900.018
0.00854,0.0443993,4.44837e-19,0.2226,0.733001,6.10178e+06,900.017
0.00856,0.0443996,9.07344e-20,0.2226,0.733,6.10178e+06,900.017
0.00858,0.0443996,5.30886e-20,0.2226,0.733,6.10178e+06,900.017
0.0086,0.0443998,1.04438e-20,0.2226,0.733,6.10178e+06,900.016
0.00862,0.0443998,3.48024e-21,0.2226,0.733,6.10178e+06,900.016
0.00864,0.0443999,1.14606e-21,0.2226,0.733,6.10178e+06,900.015
0.00866,0.0443999,3.72975e-22,0.2226,0.733,6.10178e+06,900.015
0.00868,0.0443999,1.19967e-22,0.2226,0.733,6.10178e+06,900.014
0.0087,0.0444,3.81404e-23,0.2226,0.733,6.10178e+06,900.014
0.00872,0.0444,1.19861e-23,0.2226,0.733,6.10178e+06,900.014
0.00874,0.0444,3.7237e-24,0.2226,0.733,6.10178e+06,900.013
0.00876,0.0444,1.14367e-24,0.2226,0.733,6.10178e+06,900.013
0.00878,0.0444,3.4729e-25,0.2226,0.733,6.10178e+06,900.013
0.0088,0.0444,1.04273e-25,0.2226,0.733,6.10178e+06,900.012
0.00882,0.0444,3.09582e-26,0.2226,0.733,6.10178e+06,900.012
0.00884,0.0444,9.08924e-27,0.2226,0.733,6.10178e+06,900.012
0.00886,0.0444,2.63911e-27,0.2226,0.733,6.10178e+06,900.011
0.00888,0.0444,1.4162e-27,0.2226,0.733,6.10178e+06,900.011
0.0089,0.0444,2.15262e-28,0.2226,0.733,6.10178e+06,900.011
0.00892,0.0444,1.14255e-28,0.2226,0.733,6.10178e+06,900.011
0.00894,0.0444,1.68084e-29,0.2226,0.733,6.10178e+06,900.01
0.00896,0.0444,4.62133e-30,0.2226,0.733,6.10178e+06,900.01
0.00898,0.0444,1.25704e-30,0.2226,0.733,6.10178e+06,900.01
0.009,0.0444,3.38302e-31,0.2226,0.733,6.10178e+06,900.009
0.00902,0.0444,9.00855e-32,0.2226,0.733,6.10178e+06,900.009
0.00904,0.0444,2.3737e-32,0.2226,0.733,6.10178e+06,900.009
0.00906,0.0444,6.18936e-33,0.2226,0.733,6.10178e+06,900.008
0.00908,0.0444,1.59712e-33,0.2226,0.733,6.10178e+06,900.008
0.0091,0.0444,4.07875e-34,0.2226,0.733,6.10178e+06,900.008
0.00912,0.0444,1.03095e-34,0.2226,0.733,6.10178e+06,900.008
0.00914,0.0444,2.57928e-35,0.2226,0.733,6.10178e+06,900.007