x,NH3,C7H16,O2,N2,p,T
0,1.67982e-322,1,0,2.22045e-16,6.10255e+06,363
2e-05,0,1,0,2.22045e-16,6.10255e+06,363
4e-05,1.63042e-322,1,1.4822e-322,5.55112e-16,6.10255e+06,363
6e-05,1.58101e-322,1,1.33398e-322,1.11022e-16,6.10255e+06,363
8e-05,3.45846e-323,1,0,2.22045e-16,6.10255e+06,363
0.0001,0,1,1.72923e-322,4.44089e-16,6.10255e+06,363
0.00012,0,1,0,0,6.10255e+06,363
0.00014,0,1,0,1.11022e-16,6.10255e+06,363
0.00016,0,1,1.58101e-322,1.11022e-16,6.10255e+06,363
0.00018,0,1,0,1.11022e-16,6.10255e+06,363
0.0002,1.97626e-323,1,0,0,6.10255e+06,363
0.00022,2.47033e-323,1,0,3.33067e-16,6.10255e+06,363
0.00024,0,1,1.5316e-322,7.77156e-16,6.10255e+06,363
0.00026,1.38338e-322,1,0,1.44329e-15,6.10255e+06,363
0.00028,3.95253e-323,1,1.33398e-322,1.22125e-15,6.10255e+06,363
0.0003,1.28457e-322,1,0,1.55431e-15,6.10255e+06,363
0.00032,1.43279e-322,1,0,1.33227e-15,6.10255e+06,363
0.00034,2.47033e-323,1,0,1.55431e-15,6.10255e+06,363
0.00036,1.33398e-322,1,0,1.66533e-15,6.10255e+06,363
0.00038,1.97626e-323,1,0,1.44329e-15,6.10255e+06,363
0.0004,1.67982e-322,1,0,1.22125e-15,6.10255e+06,363
0.00042,0,1,1.23516e-322,1.33227e-15,6.10255e+06,363
0.00044,0,1,0,1.44329e-15,6.10255e+06,363
0.00046,0,1,1.43279e-322,1.44329e-15,6.10255e+06,363
0.00048,0,1,1.58101e-322,1.44329e-15,6.10255e+06,363
0.0005,0,1,0,1.9984e-15,6.10255e+06,363
0.00052,1.38338e-322,1,0,1.77636e-15,6.10255e+06,363
0.00054,0,1,0,1.11022e-15,6.10255e+06,363
0.00056,1.38338e-322,1,1.38338e-322,1.33227e-15,6.10255e+06,363
0.00058,0,1,0,9.99201e-16,6.10255e+06,363
0.0006,0,1,1.33398e-322,1.33227e-15,6.10255e+06,363
0.00062,0,1,3.70549e-322,1.44329e-15,6.10255e+06,363
0.00064,0,1,6.42285e-322,1.66533e-15,6.10255e+06,363
0.00066,0,1,3.31024e-322,1.44329e-15,6.10255e+06,363
0.00068,1.58101e-322,1,6.62048e-322,9.99201e-16,6.10255e+06,363
0.0007,2.47033e-323,1,3.50787e-322,7.77156e-16,6.10255e+06,363
0.00072,0,1,6.66989e-322,1.44329e-15,6.10255e+06,363
0.00074,0,1,4.5454e-322,1.44329e-15,6.10255e+06,363
0.00076,0,1,6.52167e-322,9.99201e-16,6.10255e+06,363
0.00078,0,1,8.54734e-322,1.11022e-15,6.10255e+06,363
0.0008,0,1,1.16599e-321,1.11022e-15,6.10255e+06,363
0.00082,0,1,1.15117e-321,1.11022e-15,6.10255e+06,363
0.00084,0,1,1.13141e-321,1.33227e-15,6.10255e+06,363
0.00086,0,1,1.35868e-321,1.22125e-15,6.10255e+06,363
0.00088,2.47033e-323,1,1.13141e-321,1.22125e-15,6.10255e+06,363
0.0009,0,1,1.36856e-321,1.33227e-15,6.10255e+06,363
0.00092,0,1,1.99603e-321,1.11022e-15,6.10255e+06,363
0.00094,0,1,2.50491e-321,8.88178e-16,6.10255e+06,363
0.00096,0,1,2.54444e-321,9.99201e-16,6.10255e+06,363
0.00098,0,1,2.49009e-321,8.88178e-16,6.10255e+06,363
0.001,0,1,2.50985e-321,1.11022e-15,6.10255e+06,363
0.00102,0,1,2.55926e-321,1.11022e-15,6.10255e+06,363
0.00104,0,1,2.53456e-321,4.44089e-16,6.10255e+06,363
0.00106,0,1,2.56914e-321,5.55112e-16,6.10255e+06,363
0.00108,9.88131e-324,1,2.65313e-321,8.88178e-16,6.10255e+06,363
0.0011,1.23516e-322,1,2.66301e-321,7.77156e-16,6.10255e+06,363
0.00112,1.28457e-322,1,3.07309e-321,8.88178e-16,6.10255e+06,363
0.00114,0,1,3.16696e-321,1.11022e-15,6.10255e+06,363
0.00116,1.63042e-322,1,3.16696e-321,7.77156e-16,6.10255e+06,363
0.00118,0,1,3.19166e-321,6.66134e-16,6.10255e+06,363
0.0012,0,1,3.23613e-321,1.11022e-15,6.10255e+06,363
0.00122,1.38338e-322,1,3.13732e-321,6.66134e-16,6.10255e+06,363
0.00124,0,1,3.24601e-321,9.99201e-16,6.10255e+06,363
0.00126,0,1,3.17684e-321,5.55112e-16,6.10255e+06,363
0.00128,1.5316e-322,1,3.13732e-321,2.22045e-16,6.10255e+06,363
0.0013,0,1,3.24107e-321,1.11022e-16,6.10255e+06,363
0.00132,0,1,3.11261e-321,9.99201e-16,6.10255e+06,363
0.00134,0,1,3.21143e-321,1.33227e-15,6.10255e+06,363
0.00136,0,1,3.11755e-321,1.66533e-15,6.10255e+06,363
0.00138,0,1,3.23119e-321,7.77156e-16,6.10255e+06,363
0.0014,0,1,3.32506e-321,3.33067e-16,6.10255e+06,363
0.00142,0,1,3.10767e-321,3.33067e-16,6.10255e+06,363
0.00144,0,1,3.1966e-321,2.22045e-16,6.10255e+06,363
0.00146,0,1,3.17684e-321,3.33067e-16,6.10255e+06,363
0.00148,1.4822e-322,1,3.21637e-321,3.33067e-16,6.10255e+06,363
0.0015,1.63042e-322,1,3.19166e-321,1.11022e-16,6.10255e+06,363
0.00152,1.4822e-322,1,3.21143e-321,1.11022e-16,6.10255e+06,363
0.00154,0,1,3.34977e-321,0,6.10255e+06,363
0.00156,0,1,3.25095e-321,1.11022e-16,6.10255e+06,363
0.00158,0,1,7.60367e-321,1.11022e-16,6.10255e+06,363
0.0016,1.20058e-321,1,1.65532e-319,0,6.10255e+06,363
0.00162,1.85917e-320,1,5.56289e-318,1.11022e-16,6.10255e+06,363
0.00164,6.2608e-319,1,1.89409e-316,0,6.10255e+06,363
0.00166,2.18706e-317,1,6.41816e-315,1.11022e-16,6.10255e+06,363
0.00168,7.61161e-316,1,2.16328e-313,3.33067e-16,6.10255e+06,363
0.0017,2.63528e-314,1,7.25265e-312,4.44089e-16,6.10255e+06,363
0.00172,9.07594e-313,1,2.41854e-310,8.88178e-16,6.10255e+06,363
0.00174,3.10929e-311,1,8.02191e-309,7.77156e-16,6.10255e+06,363
0.00176,1.05958e-309,1,2.64644e-307,7.77156e-16,6.10255e+06,363
0.00178,3.59167e-308,1,8.6836e-306,6.66134e-16,6.10255e+06,363
0.0018,1.21101e-306,1,2.8339e-304,6.66134e-16,6.10255e+06,363
0.00182,4.06144e-305,1,9.19833e-303,2.22045e-16,6.10255e+06,363
0.00184,1.35484e-303,1,2.96939e-301,2.22045e-16,6.10255e+06,363
0.00186,4.49536e-302,1,9.53347e-300,5.55112e-16,6.10255e+06,363
0.00188,1.48355e-300,1,3.04407e-298,5.55112e-16,6.10255e+06,363
0.0019,4.86965e-299,1,9.66652e-297,8.88178e-16,6.10255e+06,363
0.00192,1.5898e-297,1,3.05275e-295,8.88178e-16,6.10255e+06,363
0.00194,5.16214e-296,1,9.58762e-294,5.55112e-16,6.10255e+06,363
0.00196,1.66707e-294,1,2.99448e-292,5.55112e-16,6.10255e+06,363
0.00198,5.35436e-293,1,9.30073e-291,5.55112e-16,6.10255e+06,363
0.002,1.71035e-291,1,2.87269e-289,1.11022e-16,6.10255e+06,363
0.00202,5.4335e-290,1,8.82331e-288,1.11022e-16,6.10255e+06,363
0.00204,1.71666e-288,1,2.69486e-286,4.44089e-16,6.10255e+06,363
0.00206,9.62917e-288,1,1.48618e-285,5.55112e-16,6.10255e+06,363
0.00208,1.68538e-285,1,2.47176e-283,5.55112e-16,6.10255e+06,363
0.0021,5.23714e-284,1,7.42258e-282,1.22125e-15,6.10255e+06,363
0.00212,1.61835e-282,1,2.21635e-280,3.33067e-16,6.10255e+06,363
0.00214,4.97311e-281,1,6.58032e-279,7.77156e-16,6.10255e+06,363
0.00216,1.51969e-279,1,1.94256e-277,9.99201e-16,6.10255e+06,363
0.00218,4.61787e-278,1,5.70182e-276,6.66134e-16,6.10255e+06,363
0.0022,1.39536e-276,1,1.66401e-274,4.44089e-16,6.10255e+06,363
0.00222,4.19255e-275,1,4.82831e-273,5.55112e-16,6.10255e+06,363
0.00224,1.2526e-273,1,1.39291e-271,0,6.10255e+06,363
0.00226,3.7212e-272,1,3.99512e-270,1.11022e-16,6.10255e+06,363
0.00228,1.09921e-270,1,1.13923e-268,2.22045e-16,6.10255e+06,363
0.0023,3.22848e-269,1,3.22967e-267,2.22045e-16,6.10255e+06,363
0.00232,9.42823e-268,1,9.10254e-266,0,6.10255e+06,363
0.00234,2.73759e-266,1,2.55045e-264,0,6.10255e+06,363
0.00236,7.90324e-265,1,7.10417e-263,1.11022e-16,6.10255e+06,363
0.00238,2.26847e-263,1,1.96718e-261,1.11022e-16,6.10255e+06,363
0.0024,6.47361e-262,1,5.41503e-260,1.11022e-16,6.10255e+06,363
0.00242,1.83669e-260,1,1.48175e-258,1.11022e-16,6.10255e+06,363
0.00244,5.18079e-259,1,4.03052e-257,0,6.10255e+06,363
0.00246,1.45284e-257,1,1.08981e-255,0,6.10255e+06,363
0.00248,4.05036e-256,1,2.92908e-254,0,6.10255e+06,363
0.0025,1.12258e-254,1,7.82526e-253,0,6.10255e+06,363
0.00252,3.093e-253,1,2.078e-251,0,6.10255e+06,363
0.00254,8.47178e-252,1,5.48479e-250,0,6.10255e+06,363
0.00256,2.30671e-250,1,1.43892e-248,0,6.10255e+06,363
0.00258,6.2435e-249,1,3.75203e-247,0,6.10255e+06,363
0.0026,1.67985e-247,1,9.72392e-246,0,6.10255e+06,363
0.00262,4.49279e-246,1,2.50468e-244,0,6.10255e+06,363
0.00264,1.19441e-244,1,6.41198e-243,0,6.10255e+06,363
0.00266,3.15628e-243,1,1.63136e-241,0,6.10255e+06,363
0.00268,8.29038e-242,1,4.12496e-240,0,6.10255e+06,363
0.0027,2.16443e-240,1,1.03655e-238,0,6.10255e+06,363
0.00272,5.61658e-239,1,2.58856e-237,0,6.10255e+06,363
0.00274,1.44862e-237,1,6.42406e-236,0,6.10255e+06,363
0.00276,3.71347e-236,1,1.5843e-234,0,6.10255e+06,363
0.00278,9.46112e-235,1,3.8827e-233,0,6.10255e+06,363
0.0028,2.39571e-233,1,9.4556e-232,2.22045e-16,6.10255e+06,363
0.00282,6.02899e-232,1,2.2882e-230,0,6.10255e+06,363
0.00284,1.50788e-230,1,5.50227e-229,0,6.10255e+06,363
0.00286,3.74793e-229,1,1.31469e-227,3.33067e-16,6.10255e+06,363
0.00288,9.25788e-228,1,3.12123e-226,0,6.10255e+06,363
0.0029,2.27257e-226,1,7.36283e-225,0,6.10255e+06,363
0.00292,5.54371e-225,1,1.72572e-223,3.33067e-16,6.10255e+06,363
0.00294,1.34386e-223,1,4.01876e-222,0,6.10255e+06,363
0.00296,3.23716e-222,1,9.29827e-221,0,6.10255e+06,363
0.00298,7.74869e-221,1,2.13743e-219,2.22045e-16,6.10255e+06,363
0.003,1.84304e-219,1,4.88147e-218,4.44089e-16,6.10255e+06,363
0.00302,4.35586e-218,1,1.10757e-216,0,6.10255e+06,363
0.00304,1.02291e-216,1,2.49656e-215,3.33067e-16,6.10255e+06,363
0.00306,2.38681e-215,1,5.59057e-214,2.22045e-16,6.10255e+06,363
0.00308,5.53357e-214,1,1.24367e-212,4.44089e-16,6.10255e+06,363
0.0031,1.27465e-212,1,2.74837e-211,7.77156e-16,6.10255e+06,363
0.00312,2.91718e-211,1,6.0334e-210,6.66134e-16,6.10255e+06,363
0.00314,6.63309e-210,1,1.31569e-208,2.22045e-16,6.10255e+06,363
0.00316,1.49844e-208,1,2.84999e-207,2.22045e-16,6.10255e+06,363
0.00318,3.36296e-207,1,6.13226e-206,0,6.10255e+06,363
0.0032,7.49819e-206,1,1.31061e-204,0,6.10255e+06,363
0.00322,1.66086e-204,1,2.78226e-203,0,6.10255e+06,363
0.00324,3.65462e-203,1,5.86652e-202,0,6.10255e+06,363
0.00326,7.98866e-202,1,1.22861e-200,0,6.10255e+06,363
0.00328,1.73468e-200,1,2.55557e-199,4.44089e-16,6.10255e+06,363
0.0033,3.74168e-199,1,5.2795e-198,1.11022e-16,6.10255e+06,363
0.00332,8.01694e-198,1,1.08323e-196,1.11022e-16,6.10255e+06,363
0.00334,1.70622e-196,1,2.2073e-195,1.11022e-16,6.10255e+06,363
0.00336,3.6069e-195,1,4.46692e-194,4.44089e-16,6.10255e+06,363
0.00338,7.57352e-194,1,8.97735e-193,5.55112e-16,6.10255e+06,363
0.0034,1.57948e-192,1,1.79174e-191,5.55112e-16,6.10255e+06,363
0.00342,3.27172e-191,1,3.55122e-190,3.33067e-16,6.10255e+06,363
0.00344,6.73087e-190,1,6.98955e-189,8.88178e-16,6.10255e+06,363
0.00346,1.37527e-188,1,1.36609e-187,5.55112e-16,6.10255e+06,363
0.00348,2.79075e-187,1,2.6513e-186,2.22045e-16,6.10255e+06,363
0.0035,5.62411e-186,1,5.10952e-185,1.11022e-16,6.10255e+06,363
0.00352,1.12559e-184,1,9.77762e-184,2.22045e-16,6.10255e+06,363
0.00354,2.23711e-183,1,1.85785e-182,1.11022e-16,6.10255e+06,363
0.00356,4.41536e-182,1,3.50512e-181,2.22045e-16,6.10255e+06,363
0.00358,8.65376e-181,1,6.56603e-180,2.22045e-16,6.10255e+06,363
0.0036,1.6842e-179,1,1.22124e-178,1.11022e-16,6.10255e+06,363
0.00362,3.25477e-178,1,2.25522e-177,1.11022e-16,6.10255e+06,363
0.00364,6.24562e-177,1,4.13486e-176,4.44089e-16,6.10255e+06,363
0.00366,1.19e-175,1,7.52673e-175,1.11022e-16,6.10255e+06,363
0.00368,2.25126e-174,1,1.36025e-173,0,6.10255e+06,363
0.0037,4.2286e-173,1,2.44057e-172,6.66134e-16,6.10255e+06,363
0.00372,7.88592e-172,1,4.34726e-171,1.11022e-15,6.10255e+06,363
0.00374,1.46009e-170,1,7.68751e-170,1.22125e-15,6.10255e+06,363
0.00376,2.68391e-169,1,1.34957e-168,0,6.10255e+06,363
0.00378,4.89785e-168,1,2.35199e-167,2.22045e-16,6.10255e+06,363
0.0038,8.8732e-167,1,4.06913e-166,5.55112e-16,6.10255e+06,363
0.00382,1.59581e-165,1,6.98855e-165,3.33067e-16,6.10255e+06,363
0.00384,2.84903e-164,1,1.19148e-163,0,6.10255e+06,363
0.00386,5.0491e-163,1,2.01649e-162,8.88178e-16,6.10255e+06,363
0.00388,8.88223e-162,1,3.38774e-161,7.77156e-16,6.10255e+06,363
0.0039,1.55099e-160,1,5.64966e-160,7.77156e-16,6.10255e+06,363
0.00392,2.6882e-159,1,9.35255e-159,4.44089e-16,6.10255e+06,363
0.00394,4.62454e-158,1,1.53684e-157,0,6.10255e+06,363
0.00396,7.89619e-157,1,2.50678e-156,3.33067e-16,6.10255e+06,363
0.00398,1.33812e-155,1,4.05871e-155,3.33067e-16,6.10255e+06,363
0.004,2.25057e-154,1,6.52293e-154,8.88178e-16,6.10255e+06,363
0.00402,3.75658e-153,1,1.04059e-152,1.11022e-15,6.10255e+06,363
0.00404,6.2228e-152,1,1.64775e-151,1.11022e-15,6.10255e+06,363
0.00406,1.02296e-150,1,2.58991e-150,9.99201e-16,6.10255e+06,363
0.00408,1.66877e-149,1,4.04068e-149,4.44089e-16,6.10255e+06,363
0.0041,2.70139e-148,1,6.25751e-148,2.22045e-16,6.10255e+06,363
0.00412,1.08374e-147,1,2.45565e-147,0,6.10255e+06,363
0.00414,6.91639e-146,1,1.46768e-145,2.22045e-16,6.10255e+06,363
0.00416,1.09384e-144,1,2.22287e-144,1.11022e-16,6.10255e+06,363
0.00418,1.71643e-143,1,3.34179e-143,1.11022e-16,6.10255e+06,363
0.0042,2.67232e-142,1,4.98688e-142,4.44089e-16,6.10255e+06,363
0.00422,4.12785e-141,1,7.38696e-141,1.11022e-16,6.10255e+06,363
0.00424,6.32587e-140,1,1.08616e-139,0,6.10255e+06,363
0.00426,9.61749e-139,1,1.5853e-138,1.11022e-15,6.10255e+06,363
0.00428,1.45056e-137,1,2.29683e-137,2.22045e-16,6.10255e+06,363
0.0043,2.17035e-136,1,3.30328e-136,3.33067e-16,6.10255e+06,363
0.00432,3.22127e-135,1,4.71593e-135,2.22045e-16,6.10255e+06,363
0.00434,4.74258e-134,1,6.68339e-134,5.55112e-16,6.10255e+06,363
0.00436,6.92593e-133,1,9.40242e-133,1.11022e-16,6.10255e+06,363
0.00438,1.00324e-131,1,1.3131e-131,7.77156e-16,6.10255e+06,363
0.0044,1.44137e-130,1,1.82044e-130,8.88178e-16,6.10255e+06,363
0.00442,2.0539e-129,1,2.5054e-129,1.44329e-15,6.10255e+06,363
0.00444,2.9027e-128,1,3.42298e-128,1.44329e-15,6.10255e+06,363
0.00446,1.08784e-127,1,1.26176e-127,1.33227e-15,6.10255e+06,363
0.00448,5.65508e-126,1,6.25089e-126,1.11022e-15,6.10255e+06,363
0.0045,7.79514e-125,1,8.35515e-125,1.11022e-15,6.10255e+06,363
0.00452,1.06553e-123,1,1.10865e-123,1.55431e-15,6.10255e+06,363
0.00454,1.44428e-122,1,1.46037e-122,1.33227e-15,6.10255e+06,363
0.00456,1.94116e-121,1,1.90966e-121,1.33227e-15,6.10255e+06,363
0.00458,2.58692e-120,1,2.47895e-120,9.99201e-16,6.10255e+06,363
0.0046,3.41822e-119,1,3.19443e-119,1.11022e-15,6.10255e+06,363
0.00462,4.47813e-118,1,4.08626e-118,3.33067e-16,6.10255e+06,363
0.00464,5.81642e-117,1,5.18868e-117,4.44089e-16,6.10255e+06,363
0.00466,7.48966e-116,1,6.53995e-116,7.77156e-16,6.10255e+06,363
0.00468,9.56092e-115,1,8.18215e-115,1.22125e-15,6.10255e+06,363
0.0047,1.20991e-113,1,1.01606e-113,6.66134e-16,6.10255e+06,363
0.00472,1.51776e-112,1,1.25233e-112,1.11022e-15,6.10255e+06,363
0.00474,1.88727e-111,1,1.53195e-111,5.55112e-16,6.10255e+06,363
0.00476,2.3261e-110,1,1.85984e-110,4.44089e-16,6.10255e+06,363
0.00478,2.84166e-109,1,2.24075e-109,1.77636e-15,6.10255e+06,363
0.0048,3.44069e-108,1,2.67902e-108,8.88178e-16,6.10255e+06,363
0.00482,4.12888e-107,1,3.17831e-107,5.55112e-16,6.10255e+06,363
0.00484,4.91038e-106,1,3.74137e-106,8.88178e-16,6.10255e+06,363
0.00486,5.78729e-105,1,4.36968e-105,8.88178e-16,6.10255e+06,363
0.00488,6.75922e-104,1,5.06321e-104,3.33067e-16,6.10255e+06,363
0.0049,7.82277e-103,1,5.82008e-103,2.22045e-16,6.10255e+06,363
0.00492,8.97116e-102,1,6.63633e-102,5.55112e-16,6.10255e+06,363
0.00494,1.0194e-100,1,7.50569e-101,4.44089e-16,6.10255e+06,363
0.00496,1.14769e-99,1,8.41948e-100,1.11022e-15,6.10255e+06,363
0.00498,1.2802e-98,1,9.36651e-99,1.44329e-15,6.10255e+06,363
0.005,1.41475e-97,1,1.03332e-97,1.88738e-15,6.10255e+06,363
0.00502,1.54886e-96,1,1.13037e-96,2.66454e-15,6.10255e+06,363
0.00504,1.67981e-95,1,1.22603e-95,1.9984e-15,6.10255e+06,363
0.00506,1.80467e-94,1,1.31838e-94,2.44249e-15,6.10255e+06,363
0.00508,1.92049e-93,1,1.40541e-93,1.55431e-15,6.10255e+06,363
0.0051,2.02432e-92,1,1.4851e-92,1.11022e-15,6.10255e+06,363
0.00512,6.54863e-92,1,4.81164e-92,1.66533e-15,6.10255e+06,363
0.00514,2.18521e-90,1,1.61468e-90,1.9984e-15,6.10255e+06,363
0.00516,2.2377e-89,1,1.66109e-89,1.33227e-15,6.10255e+06,363
0.00518,2.26926e-88,1,1.69335e-88,8.88178e-16,6.10255e+06,363
0.0052,2.27886e-87,1,1.71046e-87,3.33067e-16,6.10255e+06,363
0.00522,2.26612e-86,1,1.71181e-86,5.55112e-16,6.10255e+06,363
0.00524,2.23131e-85,1,1.69724e-85,6.66134e-16,6.10255e+06,363
0.00526,2.17532e-84,1,1.66701e-84,1.11022e-16,6.10255e+06,363
0.00528,2.09969e-83,1,1.62184e-83,0,6.10255e+06,363
0.0053,2.00647e-82,1,1.56286e-82,3.33067e-16,6.10255e+06,363
0.00532,1.89816e-81,1,1.49156e-81,1.11022e-16,6.10255e+06,363
0.00534,1.7776e-80,1,1.40973e-80,0,6.10255e+06,363
0.00536,1.64784e-79,1,1.31939e-79,0,6.10255e+06,363
0.00538,1.512e-78,1,1.22269e-78,2.22045e-16,6.10255e+06,363
0.0054,1.37316e-77,1,1.12187e-77,0,6.10255e+06,363
0.00542,1.23425e-76,1,1.01909e-76,0,6.10255e+06,363
0.00544,1.09791e-75,1,9.16417e-76,0,6.10255e+06,363
0.00546,9.6649e-75,1,8.15751e-75,0,6.10255e+06,363
0.00548,8.41911e-74,1,7.18743e-74,1.11022e-16,6.10255e+06,363
0.0055,7.25688e-73,1,6.26771e-73,6.66134e-16,6.10255e+06,363
0.00552,6.18906e-72,1,5.4092e-72,0,6.10255e+06,363
0.00554,5.22234e-71,1,4.61971e-71,7.77156e-16,6.10255e+06,363
0.00556,4.35961e-70,1,3.90413e-70,9.99201e-16,6.10255e+06,363
0.00558,3.60037e-69,1,3.26461e-69,1.88738e-15,6.10255e+06,363
0.0056,2.94129e-68,1,2.70087e-68,1.55431e-15,6.10255e+06,363
0.00562,2.37681e-67,1,2.21061e-67,2.33147e-15,6.10255e+06,363
0.00564,1.89972e-66,1,1.78989e-66,1.9984e-15,6.10255e+06,363
0.00566,1.50176e-65,1,1.43355e-65,1.77636e-15,6.10255e+06,363
0.00568,1.17408e-64,1,1.13566e-64,2.10942e-15,6.10255e+06,363
0.0057,9.07732e-64,1,8.89806e-64,3.55271e-15,6.10255e+06,363
0.00572,6.93986e-63,1,6.89488e-63,2.10942e-15,6.10255e+06,363
0.00574,5.24627e-62,1,5.28337e-62,2.22045e-16,6.10255e+06,363
0.00576,3.9213e-61,1,4.0033e-61,0,6.10255e+06,363
0.00578,2.89776e-60,1,2.99928e-60,0,6.10255e+06,363
0.0058,2.11698e-59,1,2.22165e-59,0,6.10255e+06,363
0.00582,1.52886e-58,1,1.62692e-58,0,6.10255e+06,363
0.00584,1.0914e-57,1,1.17775e-57,0,6.10255e+06,363
0.00586,7.70083e-57,1,8.42765e-57,0,6.10255e+06,363
0.00588,5.37031e-56,1,5.96068e-56,0,6.10255e+06,363
0.0059,3.70117e-55,1,4.16667e-55,0,6.10255e+06,363
0.00592,2.52074e-54,1,2.87841e-54,0,6.10255e+06,363
0.00594,1.69642e-53,1,1.96497e-53,0,6.10255e+06,363
0.00596,1.12804e-52,1,1.32545e-52,0,6.10255e+06,363
0.00598,7.41095e-52,1,8.83377e-52,0,6.10255e+06,363
0.006,4.81001e-51,1,5.81658e-51,0,6.10255e+06,363
0.00602,3.08397e-50,1,3.78351e-50,0,6.10255e+06,363
0.00604,1.95314e-49,1,2.43106e-49,0,6.10255e+06,363
0.00606,1.22176e-48,1,1.54288e-48,0,6.10255e+06,363
0.00608,7.54794e-48,1,9.67107e-48,0,6.10255e+06,363
0.0061,4.60504e-47,1,5.98665e-47,2.22045e-16,6.10255e+06,363
0.00612,2.77436e-46,1,3.65954e-46,1.22125e-15,6.10255e+06,363
0.00614,1.65039e-45,1,2.20885e-45,1.55431e-15,6.10255e+06,363
0.00616,9.69313e-45,1,1.31634e-44,1.55431e-15,6.10255e+06,363
0.00618,5.62036e-44,1,7.74447e-44,8.88178e-16,6.10255e+06,363
0.0062,3.21699e-43,1,4.49783e-43,9.99201e-16,6.10255e+06,363
0.00622,1.81754e-42,1,2.57849e-42,1.55431e-15,6.10255e+06,363
0.00624,1.01351e-41,1,1.45894e-41,2.22045e-16,6.10255e+06,363
0.00626,5.57765e-41,1,8.14672e-41,0,6.10255e+06,363
0.00628,3.02907e-40,1,4.48913e-40,2.22045e-16,6.10255e+06,363
0.0063,1.62317e-39,1,2.44081e-39,7.77156e-16,6.10255e+06,363
0.00632,8.5818e-39,1,1.30936e-38,4.44089e-16,6.10255e+06,363
0.00634,4.47623e-38,1,6.92946e-38,1.55431e-15,6.10255e+06,363
0.00636,2.30316e-37,1,3.6175e-37,2.55351e-15,6.10255e+06,363
0.00638,1.16889e-36,1,1.86272e-36,2.33147e-15,6.10255e+06,363
0.0064,5.85089e-36,1,9.45961e-36,1.33227e-15,6.10255e+06,363
0.00642,2.88818e-35,1,4.73743e-35,9.99201e-16,6.10255e+06,363
0.00644,1.40585e-34,1,2.33945e-34,4.44089e-16,6.10255e+06,363
0.00646,6.74727e-34,1,1.13905e-33,0,6.10255e+06,363
0.00648,3.1926e-33,1,5.46745e-33,2.22045e-16,6.10255e+06,363
0.0065,1.48918e-32,1,2.58701e-32,0,6.10255e+06,363
0.00652,6.84688e-32,1,1.20653e-31,0,6.10255e+06,363
0.00654,3.10268e-31,1,5.5457e-31,0,6.10255e+06,363
0.00656,1.3856e-30,1,2.51195e-30,0,6.10255e+06,363.001
0.00658,6.09743e-30,1,1.12113e-29,0,6.10255e+06,363.001
0.0066,2.64375e-29,1,4.92996e-29,1.22125e-15,6.10255e+06,363.001
0.00662,1.1293e-28,1,2.13563e-28,1.33227e-15,6.10255e+06,363.001
0.00664,4.75193e-28,1,9.1128e-28,1.9984e-15,6.10255e+06,363.001
0.00666,1.96946e-27,1,3.82976e-27,6.66134e-16,6.10255e+06,363.001
0.00668,8.0388e-27,1,1.58501e-26,1.33227e-15,6.10255e+06,363.001
0.0067,3.23108e-26,1,6.4592e-26,3.33067e-16,6.10255e+06,363.001
0.00672,1.27868e-25,1,2.59151e-25,9.99201e-16,6.10255e+06,363.001
0.00674,4.98168e-25,1,1.02352e-24,3.33067e-16,6.10255e+06,363.001
0.00676,1.91043e-24,1,3.97881e-24,8.88178e-16,6.10255e+06,363.001
0.00678,7.21061e-24,1,1.52216e-23,6.66134e-16,6.10255e+06,363.001
0.0068,2.67819e-23,1,5.73008e-23,5.55112e-16,6.10255e+06,363.001
0.00682,9.78779e-23,1,2.12226e-22,1.11022e-16,6.10255e+06,363.001
0.00684,3.51923e-22,1,7.73248e-22,3.33067e-16,6.10255e+06,363.001
0.00686,1.24474e-21,1,2.7712e-21,0,6.10255e+06,363.001
0.00688,4.33048e-21,1,9.76793e-21,1.33227e-15,6.10255e+06,363.001
0.0069,1.48183e-20,1,3.38609e-20,5.55112e-16,6.10255e+06,363.001
0.00692,4.98738e-20,1,1.15443e-19,4.44089e-16,6.10255e+06,363.001
0.00694,1.65126e-19,1,3.87135e-19,0,6.10255e+06,363.001
0.00696,5.37908e-19,1,1.27724e-18,2.22045e-16,6.10255e+06,363.001
0.00698,1.72382e-18,1,4.14518e-18,0,6.10255e+06,363.001
0.007,5.43122e-18,1,1.32251e-17,0,6.10255e+06,363.001
0.00702,1.6806e-17,1,4.14347e-17,0,6.10255e+06,363.001
0.00704,5.11199e-17,1,1.27596e-16,0,6.10255e+06,363.001
0.00706,1.54647e-16,1,3.90845e-16,1.44329e-15,6.10255e+06,363.002
0.00708,4.8441e-16,1,1.24124e-15,9.4369e-15,6.10255e+06,363.002
0.0071,1.61146e-15,1,4.19549e-15,3.88578e-14,6.10255e+06,363.002
0.00712,5.66969e-15,1,1.5032e-14,1.40665e-13,6.10255e+06,363.002
0.00714,2.02488e-14,1,5.47288e-14,4.91496e-13,6.10255e+06,363.002
0.00716,7.1302e-14,1,1.96479e-13,1.68432e-12,6.10255e+06,363.003
0.00718,2.44914e-13,1,6.87857e-13,5.62739e-12,6.10255e+06,363.003
0.0072,8.1769e-13,1,2.33969e-12,1.82869e-11,6.10255e+06,363.005
0.00722,2.6519e-12,1,7.72701e-12,5.77848e-11,6.10255e+06,363.007
0.00724,8.35344e-12,1,2.47746e-11,1.77477e-10,6.10255e+06,363.01
0.00726,2.55556e-11,1,7.71102e-11,5.29769e-10,6.10255e+06,363.017
0.00728,7.59273e-11,1,2.32974e-10,1.53684e-09,6.10255e+06,363.027
0.0073,2.19068e-10,1,6.83234e-10,4.33257e-09,6.10255e+06,363.045
0.00732,6.13771e-10,1,1.94482e-09,1.18692e-08,6.10255e+06,363.073
0.00734,1.66977e-09,1,5.37295e-09,3.15957e-08,6.10255e+06,363.12
0.00736,4.41059e-09,1,1.44059e-08,8.17224e-08,6.10255e+06,363.196
0.00738,1.13107e-08,1,3.74823e-08,2.05364e-07,6.10255e+06,363.316
0.0074,2.81563e-08,0.999999,9.46286e-08,5.01342e-07,6.10255e+06,363.502
0.00742,6.80277e-08,0.999999,2.31774e-07,1.18879e-06,6.10255e+06,363.788
0.00744,1.59485e-07,0.999997,5.50634e-07,2.7375e-06,6.10255e+06,364.221
0.00746,3.62693e-07,0.999992,1.26853e-06,6.12022e-06,6.10255e+06,364.864
0.00748,7.99772e-07,0.999983,2.83281e-06,1.32799e-05,6.10255e+06,365.803
0.0075,1.70912e-06,0.999964,6.12939e-06,2.79543e-05,6.10255e+06,367.149
0.00752,3.5373e-06,0.999927,1.28425e-05,5.70543e-05,6.10255e+06,369.041
0.00754,7.08486e-06,0.999854,2.60392e-05,0.000112834,6.10255e+06,371.648
0.00756,1.37209e-05,0.999719,5.10541e-05,0.000216071,6.10255e+06,375.161
0.00758,2.56716e-05,0.999477,9.67251e-05,0.000400365,6.10255e+06,379.782
0.0076,4.63673e-05,0.999059,0.00017696,0.000717378,6.10255e+06,385.714
0.00762,8.08031e-05,0.998364,0.000312501,0.0012425,6.10255e+06,393.133
0.00764,0.000135843,0.997252,0.000532641,0.00208,6.10255e+06,402.172
0.00766,0.000220385,0.995536,0.000876571,0.00336669,6.10255e+06,412.905
0.00768,0.00034535,0.992987,0.0013941,0.00527327,6.10255e+06,425.346
0.0077,0.000523477,0.989328,0.00214566,0.00800325,6.10255e+06,439.448
0.00772,0.000769017,0.984239,0.00320172,0.0117901,6.10255e+06,455.125
0.00774,0.0010974,0.977367,0.00464192,0.0168936,6.10255e+06,472.267
0.00776,0.00152499,0.968324,0.00655424,0.0235965,6.10255e+06,490.753
0.00778,0.00206894,0.956695,0.00903438,0.0322017,6.10255e+06,510.467
0.0078,0.00274715,0.942037,0.0121853,0.0430308,6.10255e+06,531.298
0.00782,0.0035783,0.923883,0.016117,0.0564216,6.10255e+06,553.138
0.00784,0.00458176,0.901749,0.020945,0.0727243,6.10255e+06,575.871
0.00786,0.00515427,0.889035,0.0237323,0.0820786,6.10255e+06,587.531
0.00788,0.00718412,0.843579,0.0337649,0.115472,6.10255e+06,623.432
0.0079,0.00797244,0.825802,0.0377126,0.128513,6.10255e+06,635.617
0.00792,0.0106982,0.763964,0.0515271,0.17381,6.10255e+06,672.334
0.00794,0.0128254,0.715427,0.0624435,0.209304,6.10255e+06,696.495
0.00796,0.0151964,0.661135,0.074713,0.248956,6.10255e+06,719.9
0.00798,0.0177904,0.601581,0.0882269,0.292401,6.10255e+06,742.079
0.008,0.0205665,0.537729,0.102763,0.338942,6.10255e+06,762.577
0.00802,0.0234617,0.471054,0.117974,0.38751,6.10255e+06,781.025
0.00804,0.0263926,0.403507,0.133398,0.436702,6.10255e+06,797.204
0.00806,0.0292626,0.337349,0.148496,0.484893,6.10255e+06,811.083
0.00808,0.0319733,0.274884,0.162718,0.530424,6.10255e+06,822.819
0.0081,0.0344389,0.218131,0.175589,0.571841,6.10255e+06,832.707
0.00812,0.0365979,0.168541,0.18677,0.608091,6.10255e+06,841.103
0.00814,0.0384203,0.126844,0.1961,0.638636,6.10255e+06,848.354
0.00816,0.0399062,0.0930496,0.20359,0.663454,6.10255e+06,854.741
0.00818,0.0410799,0.0665935,0.209384,0.682943,6.10255e+06,860.462
0.0082,0.0415618,0.0558333,0.211715,0.69089,6.10255e+06,863.113
0.00822,0.0426563,0.0317872,0.216838,0.708719,6.10255e+06,870.335
0.00824,0.0429235,0.0260515,0.218033,0.712992,6.10255e+06,872.514
0.00826,0.0435078,0.0138808,0.220498,0.722113,6.10255e+06,878.399
0.00828,0.0437612,0.00888338,0.22146,0.725896,6.10255e+06,881.793
0.0083,0.0439396,0.00556748,0.222061,0.728432,6.10255e+06,884.779
0.00832,0.0440647,0.00341791,0.222418,0.730099,6.10255e+06,887.379
0.00834,0.0441525,0.00205588,0.222617,0.731175,6.10255e+06,889.618
0.00836,0.0442146,0.00121221,0.222715,0.731859,6.10255e+06,891.525
0.00838,0.0442583,0.000712272,0.222751,0.732278,6.10255e+06,893.119
0.0084,0.0442898,0.000420501,0.222754,0.732535,6.10255e+06,894.435
0.00842,0.0443145,0.000232617,0.222744,0.732709,6.10255e+06,895.558
0.00844,0.0443331,0.000125993,0.222725,0.732815,6.10255e+06,896.482
0.00846,0.0443474,6.6842e-05,0.222704,0.732881,6.10255e+06,897.234
0.00848,0.0443585,3.47228e-05,0.222684,0.732923,6.10255e+06,897.841
0.0085,0.0443673,1.76607e-05,0.222666,0.732949,6.10255e+06,898.327
0.00852,0.0443743,8.79428e-06,0.222651,0.732965,6.10255e+06,898.712
0.00854,0.0443772,6.15659e-06,0.222645,0.732972,6.10255e+06,898.874
0.00856,0.0443842,2.04597e-06,0.22263,0.732984,6.10255e+06,899.254
0.00858,0.0443861,1.40214e-06,0.222626,0.732987,6.10255e+06,899.352
0.0086,0.0443905,4.37076e-07,0.222616,0.732993,6.10255e+06,899.58
0.00862,0.0443927,1.95641e-07,0.222612,0.732995,6.10255e+06,899.689
0.00864,0.0443944,8.57172e-08,0.222609,0.732997,6.10255e+06,899.771
0.00866,0.0443958,3.67597e-08,0.222606,0.732998,6.10255e+06,899.832
0.00868,0.0443968,1.543e-08,0.222605,0.732999,6.10255e+06,899.878
0.0087,0.0443976,6.33943e-09,0.222603,0.732999,6.10255e+06,899.912
0.00872,0.0443982,2.5493e-09,0.222602,0.733,6.10255e+06,899.937
0.00874,0.0443987,1.0034e-09,0.222602,0.733,6.10255e+06,899.955
0.00876,0.044399,3.86555e-10,0.222601,0.733,6.10255e+06,899.969
0.00878,0.0443993,1.45753e-10,0.222601,0.733,6.10255e+06,899.978
0.0088,0.0443995,5.3785e-11,0.222601,0.733,6.10255e+06,899.985
0.00882,0.0443996,1.94188e-11,0.2226,0.733,6.10255e+06,899.989
0.00884,0.0443997,7.26882e-12,0.2226,0.733,6.10255e+06,899.993
0.00886,0.0443998,2.75585e-12,0.2226,0.733,6.10255e+06,899.995
0.00888,0.0443998,1.61217e-12,0.2226,0.733,6.10255e+06,899.996
0.0089,0.0443999,3.10621e-13,0.2226,0.733,6.10255e+06,899.998
0.00892,0.0443999,1.77565e-13,0.2226,0.733,6.10255e+06,899.998
0.00894,0.0444,3.22275e-14,0.2226,0.733,6.10255e+06,899.999
0.00896,0.0444,1.01468e-14,0.2226,0.733,6.10255e+06,899.999
0.00898,0.0444,3.19964e-15,0.2226,0.733,6.10255e+06,900
0.009,0.0444,1.03966e-15,0.2226,0.733,6.10255e+06,900
0.00902,0.0444,3.55259e-16,0.2226,0.733,6.10255e+06,900
0.00904,0.0444,1.2599e-16,0.2226,0.733,6.10255e+06,900
0.00906,0.0444,4.5262e-17,0.2226,0.733,6.10255e+06,900
0.00908,0.0444,1.62256e-17,0.2226,0.733,6.10255e+06,900
0.0091,0.0444,5.76506e-18,0.2226,0.733,6.10255e+06,900
0.00912,0.0444,2.02479e-18,0.2226,0.733,6.10255e+06,900
0.00914,0.0444,7.02267e-19,0.2226,0.733,6.10255e+06,900
0.00916,0.0444,2.40454e-19,0.2226,0.733,6.10255e+06,900
0.00918,0.0444,8.12717e-20,0.2226,0.733,6.10255e+06,900
0.0092,0.0444,2.71167e-20,0.2226,0.733,6.10255e+06,900
0.00922,0.0444,1.55879e-20,0.2226,0.733,6.10255e+06,900
0.00924,0.0444,2.90473e-21,0.2226,0.733,6.10255e+06,900
0.00926,0.0444,9.32702e-22,0.2226,0.733,6.10255e+06,900
0.00928,0.0444,2.95727e-22,0.2226,0.733,6.10255e+06,900
0.0093,0.0444,9.25944e-23,0.2226,0.733,6.10255e+06,900
0.00932,0.0444,2.86322e-23,0.2226,0.733,6.10255e+06,900
0.00934,0.0444,8.74448e-24,0.2226,0.733,6.10255e+06,900
0.00936,0.0444,2.63788e-24,0.2226,0.733,6.10255e+06,900
0.00938,0.0444,7.86047e-25,0.2226,0.733,6.10255e+06,900
0.0094,0.0444,2.31391e-25,0.2226,0.733,6.10255e+06,900
0.00942,0.0444,6.72946e-26,0.2226,0.733,6.10255e+06,900
0.00944,0.0444,1.93366e-26,0.2226,0.733,6.10255e+06,900
0.00946,0.0444,5.49004e-27,0.2226,0.733,6.10255e+06,900
0.00948,0.0444,1.54027e-27,0.2226,0.733,6.10255e+06,900
0.0095,0.0444,4.27048e-28,0.2226,0.733,6.10255e+06,900
0.00952,0.0444,1.17015e-28,0.2226,0.733,6.10255e+06,900
0.00954,0.0444,3.16899e-29,0.2226,0.733,6.10255e+06,900
0.00956,0.0444,1.64196e-29,0.2226,0.733,6.10255e+06,900
0.00958,0.0444,2.24461e-30,0.2226,0.733,6.10255e+06,900
0.0096,0.0444,5.87133e-31,0.2226,0.733,6.10255e+06,900
0.00962,0.0444,1.51831e-31,0.2226,0.733,6.10255e+06,900
0.00964,0.0444,3.88188e-32,0.2226,0.733,6.10255e+06,900
0.00966,0.0444,9.81309e-33,0.2226,0.733,6.10255e+06,900
0.00968,0.0444,2.45291e-33,0.2226,0.733,6.10255e+06,900
0.0097,0.0444,6.06308e-34,0.2226,0.733,6.10255e+06,900
0.00972,0.0444,1.48207e-34,0.2226,0.733,6.10255e+06,900
0.00974,0.0444,3.58291e-35,0.2226,0.733,6.10255e+06,900
0.00976,0.0444,8.56679e-36,0.2226,0.733,6.10255e+06,900
0.00978,0.0444,2.02602e-36,0.2226,0.733,6.10255e+06,900
0.0098,0.0444,4.73952e-37,0.2226,0.733,6.10255e+06,900
0.00982,0.0444,1.09678e-37,0.2226,0.733,6.10255e+06,900
0.00984,0.0444,2.51083e-38,0.2226,0.733,6.10255e+06,900
0.00986,0.0444,5.68658e-39,0.2226,0.733,6.10255e+06,900
0.00988,0.0444,1.27413e-39,0.2226,0.733,6.10255e+06,900
0.0099,0.0444,6.00651e-40,0.2226,0.733,6.10255e+06,900
0.00992,0.0444,6.18083e-41,0.2226,0.733,6.10255e+06,900
0.00994,0.0444,1.32794e-41,0.2226,0.733,6.10255e+06,900
0.00996,0.0444,2.71353e-42,0.2226,0.733,6.10255e+06,900
0.00998,0.0444,4.37155e-43,0.2226,0.733,6.10255e+06,900