x,NH3,C7H16,O2,N2,p,T
0,1.67982e-322,1,0,0,6.10255e+06,363
2e-05,0,1,0,0,6.10255e+06,363
4e-05,1.63042e-322,1,1.4822e-322,1.11022e-16,6.10255e+06,363
6e-05,1.58101e-322,1,1.33398e-322,0,6.10255e+06,363
8e-05,3.45846e-323,1,0,1.11022e-16,6.10255e+06,363
0.0001,0,1,1.72923e-322,0,6.10255e+06,363
0.00012,0,1,0,4.44089e-16,6.10255e+06,363
0.00014,0,1,0,3.33067e-16,6.10255e+06,363
0.00016,0,1,1.58101e-322,8.88178e-16,6.10255e+06,363
0.00018,0,1,0,1.33227e-15,6.10255e+06,363
0.0002,1.97626e-323,1,0,4.44089e-16,6.10255e+06,363
0.00022,2.47033e-323,1,0,1.11022e-16,6.10255e+06,363
0.00024,0,1,1.5316e-322,2.22045e-16,6.10255e+06,363
0.00026,1.38338e-322,1,0,3.33067e-16,6.10255e+06,363
0.00028,3.95253e-323,1,1.33398e-322,2.22045e-16,6.10255e+06,363
0.0003,1.28457e-322,1,0,5.55112e-16,6.10255e+06,363
0.00032,1.43279e-322,1,0,5.55112e-16,6.10255e+06,363
0.00034,2.47033e-323,1,0,4.44089e-16,6.10255e+06,363
0.00036,1.33398e-322,1,0,3.33067e-16,6.10255e+06,363
0.00038,1.97626e-323,1,0,1.11022e-16,6.10255e+06,363
0.0004,1.67982e-322,1,0,4.44089e-16,6.10255e+06,363
0.00042,0,1,1.23516e-322,0,6.10255e+06,363
0.00044,0,1,0,0,6.10255e+06,363
0.00046,0,1,1.43279e-322,3.33067e-16,6.10255e+06,363
0.00048,0,1,1.58101e-322,3.33067e-16,6.10255e+06,363
0.0005,0,1,0,2.22045e-16,6.10255e+06,363
0.00052,1.38338e-322,1,0,0,6.10255e+06,363
0.00054,0,1,0,0,6.10255e+06,363
0.00056,1.38338e-322,1,1.38338e-322,0,6.10255e+06,363
0.00058,0,1,0,1.11022e-16,6.10255e+06,363
0.0006,0,1,1.33398e-322,1.11022e-16,6.10255e+06,363
0.00062,0,1,3.70549e-322,1.11022e-16,6.10255e+06,363
0.00064,0,1,6.42285e-322,2.22045e-16,6.10255e+06,363
0.00066,0,1,3.31024e-322,4.44089e-16,6.10255e+06,363
0.00068,1.58101e-322,1,6.62048e-322,2.22045e-16,6.10255e+06,363
0.0007,2.47033e-323,1,3.50787e-322,1.11022e-16,6.10255e+06,363
0.00072,0,1,6.66989e-322,0,6.10255e+06,363
0.00074,0,1,4.5454e-322,8.88178e-16,6.10255e+06,363
0.00076,0,1,6.52167e-322,9.99201e-16,6.10255e+06,363
0.00078,0,1,8.54734e-322,1.33227e-15,6.10255e+06,363
0.0008,0,1,1.16599e-321,1.55431e-15,6.10255e+06,363
0.00082,0,1,1.15117e-321,1.44329e-15,6.10255e+06,363
0.00084,0,1,1.13141e-321,1.33227e-15,6.10255e+06,363
0.00086,0,1,1.35868e-321,1.33227e-15,6.10255e+06,363
0.00088,2.47033e-323,1,1.13141e-321,1.44329e-15,6.10255e+06,363
0.0009,0,1,1.36856e-321,6.66134e-16,6.10255e+06,363
0.00092,0,1,1.99603e-321,8.88178e-16,6.10255e+06,363
0.00094,0,1,2.50491e-321,6.66134e-16,6.10255e+06,363
0.00096,0,1,2.54444e-321,2.22045e-16,6.10255e+06,363
0.00098,0,1,2.49009e-321,0,6.10255e+06,363
0.001,0,1,2.50985e-321,8.88178e-16,6.10255e+06,363
0.00102,0,1,2.55926e-321,7.77156e-16,6.10255e+06,363
0.00104,0,1,2.53456e-321,6.66134e-16,6.10255e+06,363
0.00106,0,1,2.56914e-321,1.22125e-15,6.10255e+06,363
0.00108,9.88131e-324,1,2.65313e-321,8.88178e-16,6.10255e+06,363
0.0011,1.23516e-322,1,2.66301e-321,7.77156e-16,6.10255e+06,363
0.00112,1.28457e-322,1,3.07309e-321,9.99201e-16,6.10255e+06,363
0.00114,0,1,3.16696e-321,7.77156e-16,6.10255e+06,363
0.00116,1.63042e-322,1,3.16696e-321,1.11022e-15,6.10255e+06,363
0.00118,0,1,3.19166e-321,8.88178e-16,6.10255e+06,363
0.0012,0,1,3.23613e-321,8.88178e-16,6.10255e+06,363
0.00122,1.38338e-322,1,3.13732e-321,9.99201e-16,6.10255e+06,363
0.00124,0,1,3.24601e-321,6.66134e-16,6.10255e+06,363
0.00126,0,1,3.17684e-321,6.66134e-16,6.10255e+06,363
0.00128,1.5316e-322,1,3.13732e-321,1.11022e-15,6.10255e+06,363
0.0013,0,1,3.24107e-321,1.11022e-15,6.10255e+06,363
0.00132,0,1,3.11261e-321,8.88178e-16,6.10255e+06,363
0.00134,0,1,3.21143e-321,8.88178e-16,6.10255e+06,363
0.00136,0,1,3.11755e-321,1.11022e-16,6.10255e+06,363
0.00138,0,1,3.23119e-321,2.22045e-16,6.10255e+06,363
0.0014,0,1,3.32506e-321,2.22045e-16,6.10255e+06,363
0.00142,0,1,3.10767e-321,0,6.10255e+06,363
0.00144,0,1,3.1966e-321,0,6.10255e+06,363
0.00146,0,1,3.17684e-321,1.11022e-16,6.10255e+06,363
0.00148,1.4822e-322,1,3.21637e-321,2.22045e-16,6.10255e+06,363
0.0015,1.63042e-322,1,3.19166e-321,0,6.10255e+06,363
0.00152,1.4822e-322,1,3.21143e-321,0,6.10255e+06,363
0.00154,0,1,3.34977e-321,3.33067e-16,6.10255e+06,363
0.00156,0,1,3.22625e-321,0,6.10255e+06,363
0.00158,0,1,3.25095e-321,0,6.10255e+06,363
0.0016,1.17094e-321,1,4.04146e-321,2.22045e-16,6.10255e+06,363
0.00162,1.37004e-320,1,3.94264e-321,2.22045e-16,6.10255e+06,363
0.00164,4.35623e-319,1,6.15606e-321,1.11022e-16,6.10255e+06,363
0.00166,1.52334e-317,1,7.6595e-320,4.44089e-16,6.10255e+06,363
0.00168,5.32117e-316,1,2.60963e-318,3.33067e-16,6.10255e+06,363
0.0017,1.84915e-314,1,9.3051e-317,2.22045e-16,6.10255e+06,363
0.00172,6.39205e-313,1,3.30517e-315,1.11022e-16,6.10255e+06,363
0.00174,2.19787e-311,1,1.16781e-313,4.44089e-16,6.10255e+06,363
0.00176,7.51718e-310,1,4.10428e-312,1.11022e-15,6.10255e+06,363
0.00178,2.55735e-308,1,1.43475e-310,7.77156e-16,6.10255e+06,363
0.0018,8.6537e-307,1,4.98868e-309,8.88178e-16,6.10255e+06,363
0.00182,2.91262e-305,1,1.72528e-307,8.88178e-16,6.10255e+06,363
0.00184,9.75058e-304,1,5.93458e-306,7.77156e-16,6.10255e+06,363
0.00186,3.24664e-302,1,2.03036e-304,5.55112e-16,6.10255e+06,363
0.00188,1.0752e-300,1,6.90875e-303,7.77156e-16,6.10255e+06,363
0.0019,3.54153e-299,1,2.33811e-301,7.77156e-16,6.10255e+06,363
0.00192,1.16019e-297,1,7.86979e-300,8.88178e-16,6.10255e+06,363
0.00194,3.78009e-296,1,2.63443e-298,7.77156e-16,6.10255e+06,363
0.00196,1.2249e-294,1,8.77058e-297,9.99201e-16,6.10255e+06,363
0.00198,3.94745e-293,1,2.90391e-295,6.66134e-16,6.10255e+06,363
0.002,1.26516e-291,1,9.56189e-294,7.77156e-16,6.10255e+06,363
0.00202,4.03258e-290,1,3.13115e-292,7.77156e-16,6.10255e+06,363
0.00204,1.27826e-288,1,1.01966e-290,2.22045e-16,6.10255e+06,363
0.00206,7.18181e-288,1,5.80668e-290,4.44089e-16,6.10255e+06,363
0.00208,1.26317e-285,1,1.06344e-287,7.77156e-16,6.10255e+06,363
0.0021,3.93782e-284,1,3.40567e-286,7.77156e-16,6.10255e+06,363
0.00212,1.22074e-282,1,1.08457e-284,6.66134e-16,6.10255e+06,363
0.00214,3.76318e-281,1,3.43457e-283,4.44089e-16,6.10255e+06,363
0.00216,1.15358e-279,1,1.08153e-281,8.88178e-16,6.10255e+06,363
0.00218,3.51634e-278,1,3.38649e-280,8.88178e-16,6.10255e+06,363
0.0022,1.06581e-276,1,1.05439e-278,6.66134e-16,6.10255e+06,363
0.00222,3.21225e-275,1,3.26423e-277,6.66134e-16,6.10255e+06,363
0.00224,9.62649e-274,1,1.00481e-275,2.22045e-16,6.10255e+06,363
0.00226,2.86848e-272,1,3.07544e-274,1.11022e-16,6.10255e+06,363
0.00228,8.49871e-271,1,9.35918e-273,3.33067e-16,6.10255e+06,363
0.0023,2.50359e-269,1,2.83186e-271,2.22045e-16,6.10255e+06,363
0.00232,7.33294e-268,1,8.51926e-270,0,6.10255e+06,363
0.00234,2.13544e-266,1,2.54812e-268,0,6.10255e+06,363
0.00236,6.18283e-265,1,7.57738e-267,0,6.10255e+06,363
0.00238,1.77978e-263,1,2.24023e-265,0,6.10255e+06,363
0.0024,5.09356e-262,1,6.58462e-264,0,6.10255e+06,363
0.00242,1.44925e-260,1,1.92411e-262,4.44089e-16,6.10255e+06,363
0.00244,4.09943e-259,1,5.58958e-261,0,6.10255e+06,363
0.00246,1.1528e-257,1,1.61426e-259,0,6.10255e+06,363
0.00248,3.2228e-256,1,4.63451e-258,3.33067e-16,6.10255e+06,363
0.0025,8.95667e-255,1,1.32271e-256,7.77156e-16,6.10255e+06,363
0.00252,2.47452e-253,1,3.75271e-255,7.77156e-16,6.10255e+06,363
0.00254,6.79603e-252,1,1.05837e-253,0,6.10255e+06,363
0.00256,1.85539e-250,1,2.96716e-252,1.11022e-16,6.10255e+06,363
0.00258,5.03525e-249,1,8.26876e-251,4.44089e-16,6.10255e+06,363
0.0026,1.35833e-247,1,2.2905e-249,2.22045e-16,6.10255e+06,363
0.00262,3.64235e-246,1,6.30672e-248,0,6.10255e+06,363
0.00264,9.70826e-245,1,1.72604e-246,1.11022e-16,6.10255e+06,363
0.00266,2.57203e-243,1,4.69534e-245,0,6.10255e+06,363
0.00268,6.77295e-242,1,1.26952e-243,2.22045e-16,6.10255e+06,363
0.0027,1.77272e-240,1,3.41167e-242,2.22045e-16,6.10255e+06,363
0.00272,4.61162e-239,1,9.11245e-241,0,6.10255e+06,363
0.00274,1.19237e-237,1,2.41902e-239,3.33067e-16,6.10255e+06,363
0.00276,3.0641e-236,1,6.38219e-238,0,6.10255e+06,363
0.00278,7.82568e-235,1,1.67347e-236,2.22045e-16,6.10255e+06,363
0.0028,1.98637e-233,1,4.36092e-235,3.33067e-16,6.10255e+06,363
0.00282,5.01085e-232,1,1.12938e-233,6.66134e-16,6.10255e+06,363
0.00284,1.25621e-230,1,2.90667e-232,6.66134e-16,6.10255e+06,363
0.00286,3.12976e-229,1,7.43426e-231,2.22045e-16,6.10255e+06,363
0.00288,7.74896e-228,1,1.88954e-229,0,6.10255e+06,363
0.0029,1.90657e-226,1,4.77247e-228,2.22045e-16,6.10255e+06,363
0.00292,4.66158e-225,1,1.19782e-226,1.11022e-16,6.10255e+06,363
0.00294,1.13259e-223,1,2.98737e-225,2.22045e-16,6.10255e+06,363
0.00296,2.73442e-222,1,7.40339e-224,3.33067e-16,6.10255e+06,363
0.00298,6.55996e-221,1,1.82308e-222,5.55112e-16,6.10255e+06,363
0.003,1.56376e-219,1,4.46075e-221,1.11022e-15,6.10255e+06,363
0.00302,3.70397e-218,1,1.08449e-219,1.22125e-15,6.10255e+06,363
0.00304,8.71727e-217,1,2.6197e-218,6.66134e-16,6.10255e+06,363
0.00306,2.03846e-215,1,6.28748e-217,9.99201e-16,6.10255e+06,363
0.00308,4.73612e-214,1,1.49931e-215,6.66134e-16,6.10255e+06,363
0.0031,1.09329e-212,1,3.55212e-214,7.77156e-16,6.10255e+06,363
0.00312,2.50742e-211,1,8.36094e-213,4.44089e-16,6.10255e+06,363
0.00314,5.71338e-210,1,1.95517e-211,6.66134e-16,6.10255e+06,363
0.00316,1.29337e-208,1,4.54224e-210,2.22045e-16,6.10255e+06,363
0.00318,2.90873e-207,1,1.04833e-208,3.33067e-16,6.10255e+06,363
0.0032,6.49877e-206,1,2.4036e-207,6.66134e-16,6.10255e+06,363
0.00322,1.44243e-204,1,5.47457e-206,4.44089e-16,6.10255e+06,363
0.00324,3.18041e-203,1,1.23867e-204,5.55112e-16,6.10255e+06,363
0.00326,6.96608e-202,1,2.78399e-203,1.22125e-15,6.10255e+06,363
0.00328,1.51566e-200,1,6.2155e-202,8.88178e-16,6.10255e+06,363
0.0033,3.27575e-199,1,1.37839e-200,7.77156e-16,6.10255e+06,363
0.00332,7.03249e-198,1,3.03631e-199,5.55112e-16,6.10255e+06,363
0.00334,1.49963e-196,1,6.64336e-198,5.55112e-16,6.10255e+06,363
0.00336,3.17636e-195,1,1.44374e-196,8.88178e-16,6.10255e+06,363
0.00338,6.6824e-194,1,3.11628e-195,3.33067e-16,6.10255e+06,363
0.0034,1.39632e-192,1,6.6807e-194,6.66134e-16,6.10255e+06,363
0.00342,2.89784e-191,1,1.42245e-192,7.77156e-16,6.10255e+06,363
0.00344,5.973e-190,1,3.00793e-191,4.44089e-16,6.10255e+06,363
0.00346,1.22272e-188,1,6.31695e-190,4.44089e-16,6.10255e+06,363
0.00348,2.48584e-187,1,1.31748e-188,2.22045e-16,6.10255e+06,363
0.0035,5.01897e-186,1,2.72877e-187,5.55112e-16,6.10255e+06,363
0.00352,1.00634e-184,1,5.61264e-186,7.77156e-16,6.10255e+06,363
0.00354,2.00378e-183,1,1.14639e-184,1.11022e-16,6.10255e+06,363
0.00356,3.96206e-182,1,2.32516e-183,7.77156e-16,6.10255e+06,363
0.00358,7.77944e-181,1,4.68293e-182,7.77156e-16,6.10255e+06,363
0.0036,1.51677e-179,1,9.36518e-181,5.55112e-16,6.10255e+06,363
0.00362,2.93647e-178,1,1.85968e-179,3.33067e-16,6.10255e+06,363
0.00364,5.64486e-177,1,3.66665e-178,3.33067e-16,6.10255e+06,363
0.00366,1.07744e-175,1,7.17797e-177,6.66134e-16,6.10255e+06,363
0.00368,2.0419e-174,1,1.39516e-175,8.88178e-16,6.10255e+06,363
0.0037,3.84205e-173,1,2.6923e-174,1.11022e-15,6.10255e+06,363
0.00372,7.17747e-172,1,5.15809e-173,1.33227e-15,6.10255e+06,363
0.00374,1.33121e-170,1,9.81091e-172,1.33227e-15,6.10255e+06,363
0.00376,2.45118e-169,1,1.85256e-170,1.66533e-15,6.10255e+06,363
0.00378,4.48072e-168,1,3.47271e-169,1.55431e-15,6.10255e+06,363
0.0038,8.13116e-167,1,6.46224e-168,1.66533e-15,6.10255e+06,363
0.00382,1.4648e-165,1,1.19373e-166,1.77636e-15,6.10255e+06,363
0.00384,2.61945e-164,1,2.18889e-165,9.99201e-16,6.10255e+06,363
0.00386,4.64984e-163,1,3.98407e-164,4.44089e-16,6.10255e+06,363
0.00388,8.19314e-162,1,7.19781e-163,7.77156e-16,6.10255e+06,363
0.0039,1.43296e-160,1,1.29072e-161,1.11022e-16,6.10255e+06,363
0.00392,2.48758e-159,1,2.29727e-160,7.77156e-16,6.10255e+06,363
0.00394,4.28615e-158,1,4.05813e-159,6.66134e-16,6.10255e+06,363
0.00396,7.32981e-157,1,7.11478e-158,1.22125e-15,6.10255e+06,363
0.00398,1.24405e-155,1,1.23796e-156,1.22125e-15,6.10255e+06,363
0.004,2.09553e-154,1,2.13769e-155,1.44329e-15,6.10255e+06,363
0.00402,3.50305e-153,1,3.66327e-154,1.22125e-15,6.10255e+06,363
0.00404,5.81141e-152,1,6.22963e-153,1.55431e-15,6.10255e+06,363
0.00406,9.56726e-151,1,1.05126e-151,1.55431e-15,6.10255e+06,363
0.00408,1.56297e-149,1,1.76038e-150,4.44089e-16,6.10255e+06,363
0.0041,2.53371e-148,1,2.92503e-149,4.44089e-16,6.10255e+06,363
0.00412,1.01718e-147,1,1.18884e-148,4.44089e-16,6.10255e+06,363
0.00414,6.50505e-146,1,7.8889e-147,0,6.10255e+06,363
0.00416,1.03017e-144,1,1.28042e-145,7.77156e-16,6.10255e+06,363
0.00418,1.61868e-143,1,2.06187e-144,0,6.10255e+06,363
0.0042,2.5234e-142,1,3.29408e-143,5.55112e-16,6.10255e+06,363
0.00422,3.90279e-141,1,5.22103e-142,3.33067e-16,6.10255e+06,363
0.00424,5.98844e-140,1,8.20942e-141,4.44089e-16,6.10255e+06,363
0.00426,9.11565e-139,1,1.28053e-139,0,6.10255e+06,363
0.00428,1.37652e-137,1,1.9814e-138,2.22045e-16,6.10255e+06,363
0.0043,2.06198e-136,1,3.04121e-137,5.55112e-16,6.10255e+06,363
0.00432,3.06393e-135,1,4.6302e-136,3.33067e-16,6.10255e+06,363
0.00434,4.51598e-134,1,6.99222e-135,1.22125e-15,6.10255e+06,363
0.00436,6.60221e-133,1,1.04732e-133,9.99201e-16,6.10255e+06,363
0.00438,9.57361e-132,1,1.55589e-132,1.11022e-16,6.10255e+06,363
0.0044,1.37689e-130,1,2.29243e-131,4.44089e-16,6.10255e+06,363
0.00442,1.96399e-129,1,3.3498e-130,1.11022e-15,6.10255e+06,363
0.00444,2.77836e-128,1,4.85436e-129,4.44089e-16,6.10255e+06,363
0.00446,1.04174e-127,1,1.84217e-128,3.33067e-16,6.10255e+06,363
0.00448,5.42303e-126,1,9.94181e-127,1.11022e-16,6.10255e+06,363
0.0045,7.48199e-125,1,1.40494e-125,2.22045e-16,6.10255e+06,363
0.00452,1.02362e-123,1,1.96869e-124,5.55112e-16,6.10255e+06,363
0.00454,1.38864e-122,1,2.73534e-123,9.99201e-16,6.10255e+06,363
0.00456,1.86791e-121,1,3.76828e-122,1.11022e-16,6.10255e+06,363
0.00458,2.49128e-120,1,5.14706e-121,1.11022e-16,6.10255e+06,363
0.0046,3.29438e-119,1,6.97014e-120,3.33067e-16,6.10255e+06,363
0.00462,4.31909e-118,1,9.35782e-119,9.99201e-16,6.10255e+06,363
0.00464,5.61388e-117,1,1.2455e-117,8.88178e-16,6.10255e+06,363
0.00466,7.23388e-116,1,1.64336e-116,5.55112e-16,6.10255e+06,363
0.00468,9.24061e-115,1,2.14943e-115,3.33067e-16,6.10255e+06,363
0.0047,1.17013e-113,1,2.78677e-114,6.66134e-16,6.10255e+06,363
0.00472,1.46878e-112,1,3.58138e-113,4.44089e-16,6.10255e+06,363
0.00474,1.82747e-111,1,4.56198e-112,9.99201e-16,6.10255e+06,363
0.00476,2.25371e-110,1,5.75961e-111,3.33067e-16,6.10255e+06,363
0.00478,2.75478e-109,1,7.20698e-110,1.11022e-16,6.10255e+06,363
0.0048,3.33731e-108,1,8.93753e-109,0,6.10255e+06,363
0.00482,4.00693e-107,1,1.09842e-107,4.44089e-16,6.10255e+06,363
0.00484,4.76776e-106,1,1.33779e-106,4.44089e-16,6.10255e+06,363
0.00486,5.62195e-105,1,1.61458e-105,1.33227e-15,6.10255e+06,363
0.00488,6.56922e-104,1,1.93092e-104,8.88178e-16,6.10255e+06,363
0.0049,7.60633e-103,1,2.28815e-103,3.33067e-16,6.10255e+06,363
0.00492,8.7268e-102,1,2.68661e-102,7.77156e-16,6.10255e+06,363
0.00494,9.92051e-101,1,3.1254e-101,1.11022e-15,6.10255e+06,363
0.00496,1.11736e-99,1,3.6022e-100,1.22125e-15,6.10255e+06,363
0.00498,1.24686e-98,1,4.11314e-99,5.55112e-16,6.10255e+06,363
0.005,1.37844e-97,1,4.65269e-98,7.77156e-16,6.10255e+06,363
0.00502,1.50967e-96,1,5.21363e-97,5.55112e-16,6.10255e+06,363
0.00504,1.63789e-95,1,5.78712e-96,6.66134e-16,6.10255e+06,363
0.00506,1.76025e-94,1,6.36287e-95,4.44089e-16,6.10255e+06,363
0.00508,1.87384e-93,1,6.92933e-94,0,6.10255e+06,363
0.0051,1.97579e-92,1,7.47407e-93,0,6.10255e+06,363
0.00512,6.39264e-92,1,2.44579e-92,4.44089e-16,6.10255e+06,363
0.00514,2.13414e-90,1,8.44683e-91,3.33067e-16,6.10255e+06,363
0.00516,2.18603e-89,1,8.8496e-90,6.66134e-16,6.10255e+06,363
0.00518,2.21748e-88,1,9.18122e-89,6.66134e-16,6.10255e+06,363
0.0052,2.22747e-87,1,9.43198e-88,1.11022e-16,6.10255e+06,363
0.00522,2.21559e-86,1,9.59424e-87,1.11022e-16,6.10255e+06,363
0.00524,2.1821e-85,1,9.66277e-86,2.22045e-16,6.10255e+06,363
0.00526,2.12786e-84,1,9.63507e-85,1.11022e-16,6.10255e+06,363
0.00528,2.05435e-83,1,9.51149e-84,3.33067e-16,6.10255e+06,363
0.0053,1.96358e-82,1,9.29524e-83,4.44089e-16,6.10255e+06,363
0.00532,1.85798e-81,1,8.99225e-82,5.55112e-16,6.10255e+06,363
0.00534,1.74033e-80,1,8.61094e-81,3.33067e-16,6.10255e+06,363
0.00536,1.61361e-79,1,8.16175e-80,2.22045e-16,6.10255e+06,363
0.00538,1.48087e-78,1,7.65675e-79,3.33067e-16,6.10255e+06,363
0.0054,1.34513e-77,1,7.10904e-78,4.44089e-16,6.10255e+06,363
0.00542,1.20925e-76,1,6.5322e-77,6.66134e-16,6.10255e+06,363
0.00544,1.07586e-75,1,5.93972e-76,1.11022e-16,6.10255e+06,363
0.00546,9.4722e-75,1,5.34451e-75,0,6.10255e+06,363
0.00548,8.25248e-74,1,4.75839e-74,0,6.10255e+06,363
0.0055,7.11426e-73,1,4.19179e-73,6.66134e-16,6.10255e+06,363
0.00552,6.06826e-72,1,3.65343e-72,0,6.10255e+06,363
0.00554,5.12109e-71,1,3.15021e-71,5.55112e-16,6.10255e+06,363
0.00556,4.27562e-70,1,2.68715e-70,4.44089e-16,6.10255e+06,363
0.00558,3.53144e-69,1,2.26742e-69,1.44329e-15,6.10255e+06,363
0.0056,2.88532e-68,1,1.8925e-68,2.22045e-16,6.10255e+06,363
0.00562,2.33185e-67,1,1.56234e-67,0,6.10255e+06,363
0.00564,1.864e-66,1,1.27564e-66,0,6.10255e+06,363
0.00566,1.47369e-65,1,1.03006e-65,0,6.10255e+06,363
0.00568,1.15227e-64,1,8.22545e-65,0,6.10255e+06,363
0.0057,8.90964e-64,1,6.49513e-64,0,6.10255e+06,363
0.00572,6.81243e-63,1,5.07133e-63,0,6.10255e+06,363
0.00574,5.15053e-62,1,3.91502e-62,0,6.10255e+06,363
0.00576,3.85018e-61,1,2.98812e-61,0,6.10255e+06,363
0.00578,2.84554e-60,1,2.25467e-60,0,6.10255e+06,363
0.0058,2.07908e-59,1,1.68176e-59,7.77156e-16,6.10255e+06,363
0.00582,1.50167e-58,1,1.23997e-58,5.55112e-16,6.10255e+06,363
0.00584,1.07213e-57,1,9.03636e-58,3.33067e-16,6.10255e+06,363
0.00586,7.56583e-57,1,6.50855e-57,8.88178e-16,6.10255e+06,363
0.00588,5.27686e-56,1,4.63289e-56,6.66134e-16,6.10255e+06,363
0.0059,3.63725e-55,1,3.25887e-55,6.66134e-16,6.10255e+06,363
0.00592,2.47754e-54,1,2.26516e-54,2.22045e-16,6.10255e+06,363
0.00594,1.66757e-53,1,1.55566e-53,0,6.10255e+06,363
0.00596,1.10901e-52,1,1.05556e-52,2.22045e-16,6.10255e+06,363
0.00598,7.28688e-52,1,7.07579e-52,4.44089e-16,6.10255e+06,363
0.006,4.7301e-51,1,4.68548e-51,1.11022e-15,6.10255e+06,363
0.00602,3.03311e-50,1,3.0647e-50,9.99201e-16,6.10255e+06,363
0.00604,1.92116e-49,1,1.97991e-49,6.66134e-16,6.10255e+06,363
0.00606,1.20188e-48,1,1.26325e-48,7.77156e-16,6.10255e+06,363
0.00608,7.42589e-48,1,7.9595e-48,3.33067e-16,6.10255e+06,363
0.0061,4.53096e-47,1,4.95224e-47,4.44089e-16,6.10255e+06,363
0.00612,2.72994e-46,1,3.04229e-46,5.55112e-16,6.10255e+06,363
0.00614,1.62406e-45,1,1.84522e-45,0,6.10255e+06,363
0.00616,9.53895e-45,1,1.10486e-44,9.99201e-16,6.10255e+06,363
0.00618,5.53113e-44,1,6.53046e-44,3.33067e-16,6.10255e+06,363
0.0062,3.16597e-43,1,3.80995e-43,1.33227e-15,6.10255e+06,363
0.00622,1.78872e-42,1,2.19381e-42,9.99201e-16,6.10255e+06,363
0.00624,9.97435e-42,1,1.24665e-41,1.11022e-15,6.10255e+06,363
0.00626,5.48905e-41,1,6.9907e-41,3.33067e-16,6.10255e+06,363
0.00628,2.98088e-40,1,3.86802e-40,0,6.10255e+06,363
0.0063,1.5973e-39,1,2.1116e-39,7.77156e-16,6.10255e+06,363
0.00632,8.44479e-39,1,1.13724e-38,6.66134e-16,6.10255e+06,363
0.00634,4.40466e-38,1,6.04186e-38,4.44089e-16,6.10255e+06,363
0.00636,2.2663e-37,1,3.16613e-37,7.77156e-16,6.10255e+06,363
0.00638,1.15018e-36,1,1.63639e-36,1.55431e-15,6.10255e+06,363
0.0064,5.7573e-36,1,8.3407e-36,7.77156e-16,6.10255e+06,363
0.00642,2.84207e-35,1,4.19215e-35,9.99201e-16,6.10255e+06,363
0.00644,1.38348e-34,1,2.07753e-34,3.33067e-16,6.10255e+06,363
0.00646,6.64032e-34,1,1.01506e-33,0,6.10255e+06,363
0.00648,3.14227e-33,1,4.88908e-33,0,6.10255e+06,363
0.0065,1.46585e-32,1,2.32117e-32,0,6.10255e+06,363
0.00652,6.74044e-32,1,1.08615e-31,1.11022e-16,6.10255e+06,363
0.00654,3.05485e-31,1,5.00871e-31,0,6.10255e+06,363
0.00656,1.36443e-30,1,2.27601e-30,4.44089e-16,6.10255e+06,363
0.00658,6.00525e-30,1,1.01903e-29,0,6.10255e+06,363
0.0066,2.60423e-29,1,4.4949e-29,6.66134e-16,6.10255e+06,363
0.00662,1.11264e-28,1,1.9531e-28,3.33067e-16,6.10255e+06,363
0.00664,4.68282e-28,1,8.35907e-28,2.22045e-16,6.10255e+06,363
0.00666,1.94131e-27,1,3.52347e-27,1.11022e-16,6.10255e+06,363
0.00668,7.92626e-27,1,1.46256e-26,0,6.10255e+06,363
0.0067,3.18697e-26,1,5.97778e-26,3.33067e-16,6.10255e+06,363
0.00672,1.26175e-25,1,2.40544e-25,7.77156e-16,6.10255e+06,363
0.00674,4.91811e-25,1,9.52847e-25,3.33067e-16,6.10255e+06,363
0.00676,1.88709e-24,1,3.71504e-24,0,6.10255e+06,363
0.00678,7.12684e-24,1,1.42546e-23,1.11022e-16,6.10255e+06,363
0.0068,2.64876e-23,1,5.38177e-23,2.22045e-16,6.10255e+06,363
0.00682,9.68638e-23,1,1.99898e-22,0,6.10255e+06,363
0.00684,3.48486e-22,1,7.30351e-22,0,6.10255e+06,363
0.00686,1.23325e-21,1,2.62441e-21,0,6.10255e+06,363
0.00688,4.29246e-21,1,9.2737e-21,0,6.10255e+06,363
0.0069,1.46933e-20,1,3.22229e-20,0,6.10255e+06,363
0.00692,4.94642e-20,1,1.10095e-19,1.11022e-16,6.10255e+06,363
0.00694,1.6378e-19,1,3.69919e-19,0,6.10255e+06,363
0.00696,5.33407e-19,1,1.22239e-18,0,6.10255e+06,363
0.00698,1.70864e-18,1,3.97237e-18,4.44089e-16,6.10255e+06,363
0.007,5.38043e-18,1,1.26881e-17,3.33067e-16,6.10255e+06,363
0.00702,1.66643e-17,1,3.98549e-17,0,6.10255e+06,363
0.00704,5.07416e-17,1,1.23058e-16,4.44089e-16,6.10255e+06,363
0.00706,1.53047e-16,1,3.76377e-16,1.77636e-15,6.10255e+06,363
0.00708,4.77981e-16,1,1.19353e-15,8.99281e-15,6.10255e+06,363
0.0071,1.58941e-15,1,4.03851e-15,3.60822e-14,6.10255e+06,363
0.00712,5.58782e-15,1,1.44792e-14,1.32117e-13,6.10255e+06,363
0.00714,1.99507e-14,1,5.27724e-14,4.71734e-13,6.10255e+06,363
0.00716,7.0247e-14,1,1.89686e-13,1.62192e-12,6.10255e+06,363.001
0.00718,2.41286e-13,1,6.64884e-13,5.43365e-12,6.10255e+06,363.001
0.0072,8.05572e-13,1,2.26419e-12,1.76831e-11,6.10255e+06,363.002
0.00722,2.61265e-12,1,7.48631e-12,5.59528e-11,6.10255e+06,363.004
0.00724,8.23016e-12,1,2.403e-11,1.7207e-10,6.10255e+06,363.008
0.00726,2.51802e-11,1,7.48758e-11,5.14257e-10,6.10255e+06,363.014
0.00728,7.48187e-11,1,2.26469e-10,1.49359e-09,6.10255e+06,363.024
0.0073,2.15894e-10,1,6.6487e-10,4.21547e-09,6.10255e+06,363.041
0.00732,6.04961e-10,1,1.89454e-09,1.15613e-08,6.10255e+06,363.069
0.00734,1.64606e-09,1,5.23943e-09,3.08096e-08,6.10255e+06,363.115
0.00736,4.34876e-09,1,1.40621e-08,7.97742e-08,6.10255e+06,363.19
0.00738,1.11544e-08,1,3.66243e-08,2.00678e-07,6.10255e+06,363.308
0.0074,2.77735e-08,0.999999,9.2553e-08,4.904e-07,6.10255e+06,363.492
0.00742,6.71198e-08,0.999999,2.26908e-07,1.164e-06,6.10255e+06,363.775
0.00744,1.57399e-07,0.999997,5.39586e-07,2.68305e-06,6.10255e+06,364.204
0.00746,3.58059e-07,0.999992,1.24424e-06,6.00427e-06,6.10255e+06,364.841
0.00748,7.89817e-07,0.999983,2.78115e-06,1.30407e-05,6.10255e+06,365.771
0.0075,1.68845e-06,0.999965,6.02315e-06,2.74764e-05,6.10255e+06,367.107
0.00752,3.49592e-06,0.999928,1.26315e-05,5.61309e-05,6.10255e+06,368.985
0.00754,7.005e-06,0.999856,2.56347e-05,0.00011111,6.10255e+06,371.575
0.00756,1.35726e-05,0.999723,5.03066e-05,0.000212964,6.10255e+06,375.066
0.00758,2.54068e-05,0.999484,9.53953e-05,0.000394964,6.10255e+06,379.662
0.0076,4.59134e-05,0.999071,0.000174684,0.000708334,6.10255e+06,385.565
0.00762,8.00565e-05,0.998383,0.000308755,0.00122791,6.10255e+06,392.952
0.00764,0.000134664,0.997281,0.000526713,0.00205734,6.10255e+06,401.957
0.00766,0.000218597,0.995581,0.00086754,0.00333277,6.10255e+06,412.657
0.00768,0.000342739,0.993052,0.00138084,0.00522422,6.10255e+06,425.064
0.0077,0.000519797,0.989419,0.00212683,0.00793462,6.10255e+06,439.135
0.00772,0.000763994,0.984363,0.00317582,0.011697,6.10255e+06,454.783
0.00774,0.00109074,0.977531,0.00460728,0.0167706,6.10255e+06,471.898
0.00776,0.00151638,0.968537,0.00650906,0.0234377,6.10255e+06,490.36
0.00778,0.00205804,0.956964,0.00897673,0.0320013,6.10255e+06,510.053
0.0078,0.00273362,0.942371,0.0121132,0.0427823,6.10255e+06,530.865
0.00782,0.00356178,0.924291,0.0160282,0.0561186,6.10255e+06,552.688
0.00784,0.00456187,0.902241,0.0208372,0.0723602,6.10255e+06,575.406
0.00786,0.00513256,0.889572,0.0236143,0.0816814,6.10255e+06,587.06
0.00788,0.0071564,0.844264,0.0336127,0.114966,6.10255e+06,622.948
0.0079,0.00794255,0.826541,0.037548,0.127969,6.10255e+06,635.131
0.00792,0.0106616,0.76487,0.0513236,0.173144,6.10255e+06,671.852
0.00794,0.0127841,0.716445,0.0622136,0.208557,6.10255e+06,696.024
0.00796,0.0151508,0.662259,0.0744581,0.248132,6.10255e+06,719.45
0.00798,0.0177411,0.602796,0.0879503,0.291512,6.10255e+06,741.659
0.008,0.0205145,0.53901,0.102471,0.338005,6.10255e+06,762.195
0.00802,0.0234084,0.472369,0.117674,0.386549,6.10255e+06,780.687
0.00804,0.0263398,0.404812,0.1331,0.435748,6.10255e+06,796.912
0.00806,0.0292121,0.338601,0.14821,0.483978,6.10255e+06,810.835
0.00808,0.0319269,0.276039,0.162455,0.529579,6.10255e+06,822.61
0.0081,0.0343979,0.219156,0.175357,0.571089,6.10255e+06,832.531
0.00812,0.0365632,0.169417,0.186573,0.607447,6.10255e+06,840.953
0.00814,0.0383921,0.127564,0.19594,0.638105,6.10255e+06,848.224
0.00816,0.0398841,0.0936207,0.203463,0.663032,6.10255e+06,854.625
0.00818,0.0410632,0.0670316,0.209288,0.682617,6.10255e+06,860.358
0.0082,0.0415475,0.0562125,0.211633,0.690607,6.10255e+06,863.014
0.00822,0.0426477,0.0320225,0.216788,0.708541,6.10255e+06,870.25
0.00824,0.0429164,0.0262494,0.217991,0.712843,6.10255e+06,872.433
0.00826,0.043504,0.0139942,0.220476,0.722026,6.10255e+06,878.331
0.00828,0.0437588,0.00895916,0.221446,0.725836,6.10255e+06,881.733
0.0083,0.0439382,0.00561696,0.222052,0.728392,6.10255e+06,884.727
0.00832,0.044064,0.00344947,0.222413,0.730073,6.10255e+06,887.334
0.00834,0.0441522,0.00207554,0.222614,0.731158,6.10255e+06,889.58
0.00836,0.0442145,0.00122418,0.222713,0.731848,6.10255e+06,891.493
0.00838,0.0442584,0.000718636,0.222751,0.732272,6.10255e+06,893.093
0.0084,0.0442899,0.000425716,0.222754,0.73253,6.10255e+06,894.411
0.00842,0.0443146,0.0002357,0.222744,0.732705,6.10255e+06,895.538
0.00844,0.0443332,0.000127688,0.222726,0.732813,6.10255e+06,896.466
0.00846,0.0443475,6.77629e-05,0.222705,0.73288,6.10255e+06,897.221
0.00848,0.0443586,3.52127e-05,0.222685,0.732922,6.10255e+06,897.83
0.0085,0.0443674,1.79157e-05,0.222667,0.732948,6.10255e+06,898.318
0.00852,0.0443743,8.92416e-06,0.222652,0.732965,6.10255e+06,898.706
0.00854,0.0443773,6.24852e-06,0.222645,0.732971,6.10255e+06,898.868
0.00856,0.0443843,2.07752e-06,0.22263,0.732984,6.10255e+06,899.25
0.00858,0.0443861,1.42399e-06,0.222626,0.732987,6.10255e+06,899.349
0.0086,0.0443905,4.44101e-07,0.222616,0.732993,6.10255e+06,899.578
0.00862,0.0443927,1.98849e-07,0.222612,0.732995,6.10255e+06,899.687
0.00864,0.0443944,8.71501e-08,0.222609,0.732997,6.10255e+06,899.769
0.00866,0.0443958,3.73859e-08,0.222606,0.732998,6.10255e+06,899.831
0.00868,0.0443968,1.56978e-08,0.222605,0.732999,6.10255e+06,899.877
0.0087,0.0443976,6.45145e-09,0.222603,0.732999,6.10255e+06,899.912
0.00872,0.0443982,2.59514e-09,0.222602,0.733,6.10255e+06,899.937
0.00874,0.0443987,1.02176e-09,0.222602,0.733,6.10255e+06,899.955
0.00876,0.044399,3.93745e-10,0.222601,0.733,6.10255e+06,899.968
0.00878,0.0443993,1.48508e-10,0.222601,0.733,6.10255e+06,899.978
0.0088,0.0443995,5.48173e-11,0.222601,0.733,6.10255e+06,899.985
0.00882,0.0443996,1.97982e-11,0.2226,0.733,6.10255e+06,899.989
0.00884,0.0443997,7.24324e-12,0.2226,0.733,6.10255e+06,899.993
0.00886,0.0443998,2.86863e-12,0.2226,0.733,6.10255e+06,899.995
0.00888,0.0443998,1.68061e-12,0.2226,0.733,6.10255e+06,899.996
0.0089,0.0443999,3.24737e-13,0.2226,0.733,6.10255e+06,899.998
0.00892,0.0443999,1.8563e-13,0.2226,0.733,6.10255e+06,899.998
0.00894,0.0444,3.36843e-14,0.2226,0.733,6.10255e+06,899.999
0.00896,0.0444,1.06002e-14,0.2226,0.733,6.10255e+06,899.999
0.00898,0.0444,3.33828e-15,0.2226,0.733,6.10255e+06,900
0.009,0.0444,1.08212e-15,0.2226,0.733,6.10255e+06,900
0.00902,0.0444,3.68869e-16,0.2226,0.733,6.10255e+06,900
0.00904,0.0444,1.30625e-16,0.2226,0.733,6.10255e+06,900
0.00906,0.0444,4.68944e-17,0.2226,0.733,6.10255e+06,900
0.00908,0.0444,1.68054e-17,0.2226,0.733,6.10255e+06,900
0.0091,0.0444,5.97007e-18,0.2226,0.733,6.10255e+06,900
0.00912,0.0444,2.09655e-18,0.2226,0.733,6.10255e+06,900
0.00914,0.0444,7.27084e-19,0.2226,0.733,6.10255e+06,900
0.00916,0.0444,2.48927e-19,0.2226,0.733,6.10255e+06,900
0.00918,0.0444,8.41272e-20,0.2226,0.733,6.10255e+06,900
0.0092,0.0444,2.80665e-20,0.2226,0.733,6.10255e+06,900
0.00922,0.0444,1.61331e-20,0.2226,0.733,6.10255e+06,900
0.00924,0.0444,3.00583e-21,0.2226,0.733,6.10255e+06,900
0.00926,0.0444,9.65056e-22,0.2226,0.733,6.10255e+06,900
0.00928,0.0444,3.0595e-22,0.2226,0.733,6.10255e+06,900
0.0093,0.0444,9.5784e-23,0.2226,0.733,6.10255e+06,900
0.00932,0.0444,2.9615e-23,0.2226,0.733,6.10255e+06,900
0.00934,0.0444,9.04354e-24,0.2226,0.733,6.10255e+06,900
0.00936,0.0444,2.72776e-24,0.2226,0.733,6.10255e+06,900
0.00938,0.0444,8.1273e-25,0.2226,0.733,6.10255e+06,900
0.0094,0.0444,2.39216e-25,0.2226,0.733,6.10255e+06,900
0.00942,0.0444,6.95616e-26,0.2226,0.733,6.10255e+06,900
0.00944,0.0444,1.99855e-26,0.2226,0.733,6.10255e+06,900
0.00946,0.0444,5.67356e-27,0.2226,0.733,6.10255e+06,900
0.00948,0.0444,1.59156e-27,0.2226,0.733,6.10255e+06,900
0.0095,0.0444,4.41211e-28,0.2226,0.733,6.10255e+06,900
0.00952,0.0444,1.2088e-28,0.2226,0.733,6.10255e+06,900
0.00954,0.0444,3.27324e-29,0.2226,0.733,6.10255e+06,900
0.00956,0.0444,1.69587e-29,0.2226,0.733,6.10255e+06,900
0.00958,0.0444,2.31784e-30,0.2226,0.733,6.10255e+06,900
0.0096,0.0444,6.06208e-31,0.2226,0.733,6.10255e+06,900
0.00962,0.0444,1.56743e-31,0.2226,0.733,6.10255e+06,900
0.00964,0.0444,4.00693e-32,0.2226,0.733,6.10255e+06,900
0.00966,0.0444,1.01278e-32,0.2226,0.733,6.10255e+06,900
0.00968,0.0444,2.53124e-33,0.2226,0.733,6.10255e+06,900
0.0097,0.0444,6.25585e-34,0.2226,0.733,6.10255e+06,900
0.00972,0.0444,1.52898e-34,0.2226,0.733,6.10255e+06,900
0.00974,0.0444,3.6958e-35,0.2226,0.733,6.10255e+06,900
0.00976,0.0444,8.83549e-36,0.2226,0.733,6.10255e+06,900
0.00978,0.0444,2.08927e-36,0.2226,0.733,6.10255e+06,900
0.0098,0.0444,4.88679e-37,0.2226,0.733,6.10255e+06,900
0.00982,0.0444,1.1307e-37,0.2226,0.733,6.10255e+06,900
0.00984,0.0444,2.58811e-38,0.2226,0.733,6.10255e+06,900
0.00986,0.0444,5.86075e-39,0.2226,0.733,6.10255e+06,900
0.00988,0.0444,1.31297e-39,0.2226,0.733,6.10255e+06,900
0.0099,0.0444,6.18912e-40,0.2226,0.733,6.10255e+06,900
0.00992,0.0444,6.36733e-41,0.2226,0.733,6.10255e+06,900
0.00994,0.0444,1.36781e-41,0.2226,0.733,6.10255e+06,900
0.00996,0.0444,2.79466e-42,0.2226,0.733,6.10255e+06,900