x,NH3,C7H16,O2,N2,p,T
0,1.67982e-322,1,0,0,6.10246e+06,363
2e-05,0,1,0,0,6.10246e+06,363
4e-05,1.63042e-322,1,1.4822e-322,2.22045e-16,6.10246e+06,363
6e-05,1.58101e-322,1,1.33398e-322,2.22045e-16,6.10246e+06,363
8e-05,3.45846e-323,1,0,1.11022e-16,6.10246e+06,363
0.0001,0,1,1.72923e-322,0,6.10246e+06,363
0.00012,0,1,0,4.44089e-16,6.10246e+06,363
0.00014,0,1,0,2.22045e-16,6.10246e+06,363
0.00016,0,1,1.58101e-322,2.22045e-16,6.10246e+06,363
0.00018,0,1,0,1.11022e-16,6.10246e+06,363
0.0002,1.97626e-323,1,0,3.33067e-16,6.10246e+06,363
0.00022,2.47033e-323,1,0,2.22045e-16,6.10246e+06,363
0.00024,0,1,1.5316e-322,4.44089e-16,6.10246e+06,363
0.00026,1.38338e-322,1,5.08888e-322,2.22045e-16,6.10246e+06,363
0.00028,3.95253e-323,1,1.1156e-320,4.44089e-16,6.10246e+06,363
0.0003,1.28457e-322,1,2.4104e-319,2.22045e-16,6.10246e+06,363
0.00032,1.43279e-322,1,1.13433e-318,1.11022e-16,6.10246e+06,363
0.00034,2.47033e-323,1,1.17634e-316,1.11022e-16,6.10246e+06,363
0.00036,1.33398e-322,1,2.58137e-315,4.44089e-16,6.10246e+06,363
0.00038,1.97626e-323,1,5.63873e-314,3.33067e-16,6.10246e+06,363
0.0004,1.67982e-322,1,1.22609e-312,2.22045e-16,6.10246e+06,363
0.00042,0,1,2.65384e-311,0,6.10246e+06,363
0.00044,0,1,5.71781e-310,1.11022e-16,6.10246e+06,363
0.00046,0,1,1.22628e-308,0,6.10246e+06,363
0.00048,0,1,2.61786e-307,1.11022e-16,6.10246e+06,363
0.0005,0,1,5.56288e-306,5.55112e-16,6.10246e+06,363
0.00052,1.38338e-322,1,1.17665e-304,3.33067e-16,6.10246e+06,363
0.00054,0,1,2.47733e-303,1.11022e-16,6.10246e+06,363
0.00056,1.38338e-322,1,5.19168e-302,3.33067e-16,6.10246e+06,363
0.00058,0,1,1.08297e-300,4.44089e-16,6.10246e+06,363
0.0006,0,1,2.24856e-299,3.33067e-16,6.10246e+06,363
0.00062,0,1,4.64698e-298,1.11022e-16,6.10246e+06,363
0.00064,0,1,9.55898e-297,1.11022e-16,6.10246e+06,363
0.00066,0,1,1.95715e-295,0,6.10246e+06,363
0.00068,1.58101e-322,1,3.98844e-294,2.22045e-16,6.10246e+06,363
0.0007,2.47033e-323,1,8.08998e-293,2.22045e-16,6.10246e+06,363
0.00072,0,1,1.63325e-291,1.11022e-16,6.10246e+06,363
0.00074,0,1,3.28184e-290,6.66134e-16,6.10246e+06,363
0.00076,0,1,6.56353e-289,3.33067e-16,6.10246e+06,363
0.00078,0,1,1.3065e-287,3.33067e-16,6.10246e+06,363
0.0008,0,1,2.58838e-286,0,6.10246e+06,363
0.00082,0,1,5.1038e-285,1.11022e-16,6.10246e+06,363
0.00084,0,1,1.00162e-283,1.11022e-16,6.10246e+06,363
0.00086,0,1,1.95635e-282,1.11022e-16,6.10246e+06,363
0.00088,2.47033e-323,1,3.80301e-281,2.22045e-16,6.10246e+06,363
0.0009,0,1,7.35768e-280,0,6.10246e+06,363.001
0.00092,0,1,1.41672e-278,5.55112e-16,6.10246e+06,363.001
0.00094,0,1,2.71487e-277,1.11022e-16,6.10246e+06,363.001
0.00096,0,1,5.17772e-276,1.11022e-16,6.10246e+06,363.001
0.00098,0,1,9.82756e-275,1.11022e-16,6.10246e+06,363.001
0.001,0,1,1.85638e-273,1.11022e-16,6.10246e+06,363.001
0.00102,0,1,3.48981e-272,4.44089e-16,6.10246e+06,363.001
0.00104,0,1,6.52895e-271,6.66134e-16,6.10246e+06,363.001
0.00106,0,1,1.2156e-269,1.33227e-15,6.10246e+06,363.001
0.00108,9.88131e-324,1,2.25236e-268,1.22125e-15,6.10246e+06,363.001
0.0011,5.63235e-322,1,4.1532e-267,9.99201e-16,6.10246e+06,363.001
0.00112,1.36214e-320,1,7.62118e-266,5.55112e-16,6.10246e+06,363.001
0.00114,3.83425e-319,1,1.39172e-264,1.11022e-16,6.10246e+06,363.001
0.00116,1.06981e-317,1,2.52912e-263,6.66134e-16,6.10246e+06,363.001
0.00118,2.97105e-316,1,4.57372e-262,1.11022e-15,6.10246e+06,363.001
0.0012,8.2109e-315,1,8.23095e-261,6.66134e-16,6.10246e+06,363.001
0.00122,2.25813e-313,1,1.47403e-259,1.11022e-15,6.10246e+06,363.001
0.00124,6.17985e-312,1,2.62685e-258,8.88178e-16,6.10246e+06,363.001
0.00126,1.68296e-310,1,4.65838e-257,8.88178e-16,6.10246e+06,363.001
0.00128,4.56067e-309,1,8.2205e-256,8.88178e-16,6.10246e+06,363.001
0.0013,1.22981e-307,1,1.44352e-254,0,6.10246e+06,363.001
0.00132,3.29989e-306,1,2.52236e-253,4.44089e-16,6.10246e+06,363.001
0.00134,8.81054e-305,1,4.38576e-252,6.66134e-16,6.10246e+06,363.001
0.00136,2.34069e-303,1,7.58811e-251,7.77156e-16,6.10246e+06,363.001
0.00138,6.18754e-302,1,1.30638e-249,1.22125e-15,6.10246e+06,363.001
0.0014,1.62749e-300,1,2.23793e-248,8.88178e-16,6.10246e+06,363.001
0.00142,4.2593e-299,1,3.81474e-247,6.66134e-16,6.10246e+06,363.001
0.00144,1.10911e-297,1,6.4702e-246,8.88178e-16,6.10246e+06,363.001
0.00146,2.87354e-296,1,1.09195e-244,1.11022e-16,6.10246e+06,363.001
0.00148,7.40738e-295,1,1.83365e-243,4.44089e-16,6.10246e+06,363.001
0.0015,1.8998e-293,1,3.06374e-242,2.22045e-16,6.10246e+06,363.001
0.00152,4.84778e-292,1,5.09342e-241,0,6.10246e+06,363.001
0.00154,1.23073e-290,1,8.42524e-240,1.11022e-16,6.10246e+06,363.001
0.00156,3.10856e-289,1,1.38665e-238,0,6.10246e+06,363.001
0.00158,7.81141e-288,1,2.27071e-237,0,6.10246e+06,363.001
0.0016,1.95283e-286,1,3.69964e-236,0,6.10246e+06,363.001
0.00162,4.85692e-285,1,5.99734e-235,0,6.10246e+06,363.001
0.00164,1.20174e-283,1,9.67285e-234,1.11022e-16,6.10246e+06,363.001
0.00166,2.95806e-282,1,1.55218e-232,0,6.10246e+06,363.001
0.00168,7.24345e-281,1,2.4781e-231,0,6.10246e+06,363.001
0.0017,1.76448e-279,1,3.93622e-230,4.44089e-16,6.10246e+06,363.001
0.00172,4.2758e-278,1,6.22043e-229,7.77156e-16,6.10246e+06,363.001
0.00174,1.03072e-276,1,9.77997e-228,4.44089e-16,6.10246e+06,363.001
0.00176,2.47159e-275,1,1.52977e-226,7.77156e-16,6.10246e+06,363.001
0.00178,5.89551e-274,1,2.38059e-225,1.11022e-15,6.10246e+06,363.001
0.0018,1.39884e-272,1,3.68558e-224,1.11022e-15,6.10246e+06,363.001
0.00182,3.30149e-271,1,5.67658e-223,7.77156e-16,6.10246e+06,363.001
0.00184,7.75069e-270,1,8.69807e-222,8.88178e-16,6.10246e+06,363.001
0.00186,1.80989e-268,1,1.3259e-220,6.66134e-16,6.10246e+06,363.001
0.00188,4.20378e-267,1,2.01069e-219,9.99201e-16,6.10246e+06,363.001
0.0019,9.7117e-266,1,3.03335e-218,8.88178e-16,6.10246e+06,363.001
0.00192,2.23158e-264,1,4.55238e-217,9.99201e-16,6.10246e+06,363.001
0.00194,5.10016e-263,1,6.79655e-216,1.11022e-15,6.10246e+06,363.001
0.00196,1.15932e-261,1,1.00941e-214,6.66134e-16,6.10246e+06,363.001
0.00198,2.62097e-260,1,1.49133e-213,4.44089e-16,6.10246e+06,363.001
0.002,5.89326e-259,1,2.19179e-212,2.22045e-16,6.10246e+06,363.001
0.00202,1.31788e-257,1,3.20437e-211,0,6.10246e+06,363.001
0.00204,2.931e-256,1,4.66012e-210,0,6.10246e+06,363.002
0.00206,1.3794e-255,1,1.77364e-209,5.55112e-16,6.10246e+06,363.002
0.00208,1.42602e-253,1,9.70121e-208,8.88178e-16,6.10246e+06,363.002
0.0021,3.11949e-252,1,1.38864e-206,4.44089e-16,6.10246e+06,363.002
0.00212,6.78627e-251,1,1.9772e-205,0,6.10246e+06,363.002
0.00214,1.46813e-249,1,2.80026e-204,2.22045e-16,6.10246e+06,363.002
0.00216,3.15844e-248,1,3.94487e-203,1.11022e-16,6.10246e+06,363.002
0.00218,6.75696e-247,1,5.52774e-202,1.11022e-16,6.10246e+06,363.002
0.0022,1.43745e-245,1,7.70438e-201,2.22045e-16,6.10246e+06,363.002
0.00222,3.04081e-244,1,1.06807e-199,0,6.10246e+06,363.002
0.00224,6.39637e-243,1,1.47274e-198,1.11022e-16,6.10246e+06,363.002
0.00226,1.33788e-241,1,2.01984e-197,1.11022e-16,6.10246e+06,363.002
0.00228,2.78251e-240,1,2.75527e-196,0,6.10246e+06,363.002
0.0023,5.75414e-239,1,3.73821e-195,3.33067e-16,6.10246e+06,363.002
0.00232,1.18316e-237,1,5.04442e-194,0,6.10246e+06,363.002
0.00234,2.41889e-236,1,6.77019e-193,2.22045e-16,6.10246e+06,363.002
0.00236,4.9169e-235,1,9.0371e-192,1.11022e-16,6.10246e+06,363.002
0.00238,9.9372e-234,1,1.19975e-190,1.11022e-16,6.10246e+06,363.002
0.0024,1.99676e-232,1,1.58409e-189,1.11022e-16,6.10246e+06,363.002
0.00242,3.98902e-231,1,2.08013e-188,5.55112e-16,6.10246e+06,363.002
0.00244,7.92285e-230,1,2.71657e-187,2.22045e-16,6.10246e+06,363.002
0.00246,1.56445e-228,1,3.5283e-186,0,6.10246e+06,363.002
0.00248,3.07115e-227,1,4.5574e-185,2.22045e-16,6.10246e+06,363.002
0.0025,5.99363e-226,1,5.85427e-184,2.22045e-16,6.10246e+06,363.002
0.00252,1.16284e-224,1,7.4787e-183,1.11022e-16,6.10246e+06,363.002
0.00254,2.24279e-223,1,9.50107e-182,2.22045e-16,6.10246e+06,363.002
0.00256,4.30014e-222,1,1.20035e-180,2.22045e-16,6.10246e+06,363.002
0.00258,8.19589e-221,1,1.50808e-179,2.22045e-16,6.10246e+06,363.002
0.0026,1.55282e-219,1,1.88416e-178,2.22045e-16,6.10246e+06,363.002
0.00262,2.9245e-218,1,2.34092e-177,1.11022e-16,6.10246e+06,363.002
0.00264,5.47492e-217,1,2.89215e-176,1.11022e-16,6.10246e+06,363.002
0.00266,1.01881e-215,1,3.55317e-175,0,6.10246e+06,363.002
0.00268,1.88446e-214,1,4.34079e-174,1.11022e-16,6.10246e+06,363.002
0.0027,3.46462e-213,1,5.27318e-173,3.33067e-16,6.10246e+06,363.002
0.00272,6.33123e-212,1,6.36975e-172,1.11022e-16,6.10246e+06,363.002
0.00274,1.14995e-210,1,7.6509e-171,1.11022e-16,6.10246e+06,363.002
0.00276,2.07595e-209,1,9.1377e-170,0,6.10246e+06,363.003
0.00278,3.72474e-208,1,1.08515e-168,0,6.10246e+06,363.003
0.0028,6.64215e-207,1,1.28136e-167,1.11022e-16,6.10246e+06,363.003
0.00282,1.17719e-205,1,1.50441e-166,0,6.10246e+06,363.003
0.00284,2.07349e-204,1,1.75621e-165,0,6.10246e+06,363.003
0.00286,3.62965e-203,1,2.03841e-164,0,6.10246e+06,363.003
0.00288,6.31437e-202,1,2.35239e-163,0,6.10246e+06,363.003
0.0029,1.09166e-200,1,2.69913e-162,0,6.10246e+06,363.003
0.00292,1.87556e-199,1,3.07913e-161,0,6.10246e+06,363.003
0.00294,3.20221e-198,1,3.49233e-160,1.11022e-16,6.10246e+06,363.003
0.00296,5.43297e-197,1,3.93806e-159,0,6.10246e+06,363.003
0.00298,9.15979e-196,1,4.41491e-158,2.22045e-16,6.10246e+06,363.003
0.003,1.53457e-194,1,4.92072e-157,4.44089e-16,6.10246e+06,363.003
0.00302,2.55464e-193,1,5.4525e-156,4.44089e-16,6.10246e+06,363.003
0.00304,4.22581e-192,1,6.00645e-155,5.55112e-16,6.10246e+06,363.003
0.00306,6.94572e-191,1,6.57793e-154,8.88178e-16,6.10246e+06,363.003
0.00308,1.13434e-189,1,7.16149e-153,5.55112e-16,6.10246e+06,363.003
0.0031,1.84069e-188,1,7.75095e-152,3.33067e-16,6.10246e+06,363.003
0.00312,2.96771e-187,1,8.33944e-151,1.11022e-16,6.10246e+06,363.003
0.00314,4.75396e-186,1,8.91956e-150,1.11022e-16,6.10246e+06,363.003
0.00316,7.56617e-185,1,9.4835e-149,0,6.10246e+06,363.003
0.00318,1.19639e-183,1,1.00232e-147,0,6.10246e+06,363.003
0.0032,1.87949e-182,1,1.05305e-146,4.44089e-16,6.10246e+06,363.003
0.00322,2.93338e-181,1,1.09975e-145,6.66134e-16,6.10246e+06,363.003
0.00324,4.54829e-180,1,1.14164e-144,1.22125e-15,6.10246e+06,363.003
0.00326,7.00603e-179,1,1.17802e-143,9.99201e-16,6.10246e+06,363.004
0.00328,1.07209e-177,1,1.20825e-142,1.44329e-15,6.10246e+06,363.004
0.0033,1.62973e-176,1,1.23179e-141,1.22125e-15,6.10246e+06,363.004
0.00332,2.46105e-175,1,1.24819e-140,1.11022e-15,6.10246e+06,363.004
0.00334,3.69177e-174,1,1.25715e-139,7.77156e-16,6.10246e+06,363.004
0.00336,5.5011e-173,1,1.25849e-138,4.44089e-16,6.10246e+06,363.004
0.00338,8.14249e-172,1,1.25216e-137,7.77156e-16,6.10246e+06,363.004
0.0034,1.19715e-170,1,1.23825e-136,5.55112e-16,6.10246e+06,363.004
0.00342,1.7483e-169,1,1.21701e-135,7.77156e-16,6.10246e+06,363.004
0.00344,2.536e-168,1,1.18879e-134,4.44089e-16,6.10246e+06,363.004
0.00346,3.65377e-167,1,1.15409e-133,7.77156e-16,6.10246e+06,363.004
0.00348,5.22856e-166,1,1.11349e-132,4.44089e-16,6.10246e+06,363.004
0.0035,7.43127e-165,1,1.06767e-131,1.11022e-16,6.10246e+06,363.004
0.00352,1.049e-163,1,1.0174e-130,0,6.10246e+06,363.004
0.00354,1.47066e-162,1,9.6347e-130,1.11022e-16,6.10246e+06,363.004
0.00356,2.04769e-161,1,9.06714e-129,3.33067e-16,6.10246e+06,363.004
0.00358,2.83152e-160,1,8.47972e-128,0,6.10246e+06,363.004
0.0036,3.88842e-159,1,7.88069e-127,2.22045e-16,6.10246e+06,363.004
0.00362,5.30291e-158,1,7.27798e-126,7.77156e-16,6.10246e+06,363.004
0.00364,7.18181e-157,1,6.67905e-125,3.33067e-16,6.10246e+06,363.004
0.00366,9.65882e-156,1,6.09072e-124,3.33067e-16,6.10246e+06,363.005
0.00368,1.28996e-154,1,5.51906e-123,2.22045e-16,6.10246e+06,363.005
0.0037,1.71072e-153,1,4.96931e-122,0,6.10246e+06,363.005
0.00372,2.25282e-152,1,4.44585e-121,0,6.10246e+06,363.005
0.00374,2.94583e-151,1,3.95215e-120,2.22045e-16,6.10246e+06,363.005
0.00376,3.82485e-150,1,3.49079e-119,8.88178e-16,6.10246e+06,363.005
0.00378,4.93103e-149,1,3.06351e-118,0,6.10246e+06,363.005
0.0038,6.31203e-148,1,2.67123e-117,3.33067e-16,6.10246e+06,363.005
0.00382,8.0223e-147,1,2.31416e-116,2.22045e-16,6.10246e+06,363.005
0.00384,1.01232e-145,1,1.99185e-115,0,6.10246e+06,363.005
0.00386,1.26829e-144,1,1.70331e-114,9.99201e-16,6.10246e+06,363.005
0.00388,1.57757e-143,1,1.44709e-113,5.55112e-16,6.10246e+06,363.005
0.0039,1.94815e-142,1,1.2214e-112,8.88178e-16,6.10246e+06,363.005
0.00392,2.38841e-141,1,1.02416e-111,4.44089e-16,6.10246e+06,363.005
0.00394,2.90696e-140,1,8.53134e-111,0,6.10246e+06,363.005
0.00396,3.51241e-139,1,7.05995e-110,4.44089e-16,6.10246e+06,363.006
0.00398,4.21305e-138,1,5.80379e-109,5.55112e-16,6.10246e+06,363.006
0.004,5.01656e-137,1,4.73956e-108,9.99201e-16,6.10246e+06,363.006
0.00402,5.92956e-136,1,3.84479e-107,1.66533e-15,6.10246e+06,363.006
0.00404,6.95725e-135,1,3.09819e-106,5.55112e-16,6.10246e+06,363.006
0.00406,8.10293e-134,1,2.4799e-105,5.55112e-16,6.10246e+06,363.006
0.00408,9.36757e-133,1,1.97172e-104,0,6.10246e+06,363.006
0.0041,1.07494e-131,1,1.55714e-103,6.66134e-16,6.10246e+06,363.006
0.00412,3.63118e-131,1,4.36486e-103,6.66134e-16,6.10246e+06,363.006
0.00414,1.38412e-129,1,9.51668e-102,9.99201e-16,6.10246e+06,363.006
0.00416,1.55306e-128,1,7.36445e-101,7.77156e-16,6.10246e+06,363.006
0.00418,1.72957e-127,1,5.66024e-100,8.88178e-16,6.10246e+06,363.006
0.0042,1.91168e-126,1,4.32076e-99,9.99201e-16,6.10246e+06,363.006
0.00422,2.09705e-125,1,3.27572e-98,0,6.10246e+06,363.007
0.00424,2.28301e-124,1,2.46641e-97,3.33067e-16,6.10246e+06,363.007
0.00426,2.46664e-123,1,1.84428e-96,5.55112e-16,6.10246e+06,363.007
0.00428,2.64481e-122,1,1.36956e-95,3.33067e-16,6.10246e+06,363.007
0.0043,2.81425e-121,1,1.01e-94,4.44089e-16,6.10246e+06,363.007
0.00432,2.97169e-120,1,7.3967e-94,3.33067e-16,6.10246e+06,363.007
0.00434,3.11391e-119,1,5.37922e-93,2.22045e-16,6.10246e+06,363.007
0.00436,3.23789e-118,1,3.8847e-92,5.55112e-16,6.10246e+06,363.007
0.00438,3.34089e-117,1,2.78575e-91,3.33067e-16,6.10246e+06,363.007
0.0044,3.42057e-116,1,1.98364e-90,2.22045e-16,6.10246e+06,363.007
0.00442,3.47506e-115,1,1.40253e-89,2.22045e-16,6.10246e+06,363.007
0.00444,3.50303e-114,1,9.84639e-89,0,6.10246e+06,363.007
0.00446,1.10895e-113,1,2.60196e-88,0,6.10246e+06,363.008
0.00448,3.47718e-112,1,4.7503e-87,8.88178e-16,6.10246e+06,363.008
0.0045,3.42382e-111,1,3.26422e-86,1.11022e-15,6.10246e+06,363.008
0.00452,3.34486e-110,1,2.22698e-85,1.55431e-15,6.10246e+06,363.008
0.00454,3.24206e-109,1,1.50841e-84,1.55431e-15,6.10246e+06,363.008
0.00456,3.11767e-108,1,1.01433e-83,2.22045e-15,6.10246e+06,363.008
0.00458,2.97439e-107,1,6.77147e-83,1.55431e-15,6.10246e+06,363.008
0.0046,2.81524e-106,1,4.4877e-82,1.88738e-15,6.10246e+06,363.008
0.00462,2.64348e-105,1,2.9525e-81,9.99201e-16,6.10246e+06,363.008
0.00464,2.46246e-104,1,1.92829e-80,5.55112e-16,6.10246e+06,363.009
0.00466,2.27556e-103,1,1.25013e-79,0,6.10246e+06,363.009
0.00468,2.08605e-102,1,8.04515e-79,3.33067e-16,6.10246e+06,363.009
0.0047,1.89702e-101,1,5.13918e-78,8.88178e-16,6.10246e+06,363.009
0.00472,1.71128e-100,1,3.25855e-77,8.88178e-16,6.10246e+06,363.009
0.00474,1.53132e-99,1,2.05076e-76,7.77156e-16,6.10246e+06,363.009
0.00476,1.35925e-98,1,1.28101e-75,1.33227e-15,6.10246e+06,363.009
0.00478,1.19677e-97,1,7.94197e-75,0,6.10246e+06,363.009
0.0048,1.04519e-96,1,4.88686e-74,4.44089e-16,6.10246e+06,363.009
0.00482,9.05409e-96,1,2.98432e-73,6.66134e-16,6.10246e+06,363.01
0.00484,7.77955e-95,1,1.80869e-72,1.33227e-15,6.10246e+06,363.01
0.00486,6.63004e-94,1,1.08786e-71,1.11022e-15,6.10246e+06,363.01
0.00488,5.60432e-93,1,6.49324e-71,1.22125e-15,6.10246e+06,363.01
0.0049,4.69861e-92,1,3.84607e-70,1.55431e-15,6.10246e+06,363.01
0.00492,3.90705e-91,1,2.26062e-69,1.77636e-15,6.10246e+06,363.01
0.00494,3.22222e-90,1,1.3185e-68,7.77156e-16,6.10246e+06,363.01
0.00496,2.63562e-89,1,7.63071e-68,4.44089e-16,6.10246e+06,363.011
0.00498,2.13808e-88,1,4.38195e-67,6.66134e-16,6.10246e+06,363.011
0.005,1.72019e-87,1,2.49675e-66,1.9984e-15,6.10246e+06,363.011
0.00502,1.37257e-86,1,1.41149e-65,1.9984e-15,6.10246e+06,363.011
0.00504,1.08615e-85,1,7.91696e-65,1.22125e-15,6.10246e+06,363.011
0.00506,8.52393e-85,1,4.40563e-64,1.22125e-15,6.10246e+06,363.011
0.00508,6.63407e-84,1,2.43227e-63,1.44329e-15,6.10246e+06,363.011
0.0051,5.12042e-83,1,1.33217e-62,8.88178e-16,6.10246e+06,363.012
0.00512,1.41812e-82,1,3.10835e-62,5.55112e-16,6.10246e+06,363.012
0.00514,2.97506e-81,1,3.90142e-61,0,6.10246e+06,363.012
0.00516,2.23951e-80,1,2.086e-60,7.77156e-16,6.10246e+06,363.012
0.00518,1.67178e-79,1,1.10636e-59,1.11022e-16,6.10246e+06,363.012
0.0052,1.23757e-78,1,5.82036e-59,1.11022e-15,6.10246e+06,363.012
0.00522,9.08502e-78,1,3.03715e-58,6.66134e-16,6.10246e+06,363.013
0.00524,6.61365e-77,1,1.57191e-57,1.11022e-16,6.10246e+06,363.013
0.00526,4.77435e-76,1,8.06909e-57,4.44089e-16,6.10246e+06,363.013
0.00528,3.41777e-75,1,4.10808e-56,1.11022e-16,6.10246e+06,363.013
0.0053,2.42618e-74,1,2.07423e-55,0,6.10246e+06,363.013
0.00532,1.70787e-73,1,1.03864e-54,3.33067e-16,6.10246e+06,363.013
0.00534,1.19216e-72,1,5.15765e-54,3.33067e-16,6.10246e+06,363.014
0.00536,8.25204e-72,1,2.53978e-53,2.22045e-16,6.10246e+06,363.014
0.00538,5.66413e-71,1,1.24019e-52,0,6.10246e+06,363.014
0.0054,3.85523e-70,1,6.00495e-52,1.11022e-16,6.10246e+06,363.014
0.00542,2.60201e-69,1,2.88302e-51,0,6.10246e+06,363.014
0.00544,1.74145e-68,1,1.37242e-50,1.11022e-16,6.10246e+06,363.015
0.00546,1.15572e-67,1,6.47752e-50,1.11022e-16,6.10246e+06,363.015
0.00548,7.60557e-67,1,3.03111e-49,0,6.10246e+06,363.015
0.0055,4.96307e-66,1,1.4062e-48,7.77156e-16,6.10246e+06,363.015
0.00552,3.21149e-65,1,6.46743e-48,1.11022e-16,6.10246e+06,363.015
0.00554,2.06062e-64,1,2.94874e-47,0,6.10246e+06,363.016
0.00556,1.31107e-63,1,1.33275e-46,4.44089e-16,6.10246e+06,363.016
0.00558,8.27149e-63,1,5.97103e-46,6.66134e-16,6.10246e+06,363.016
0.0056,5.17456e-62,1,2.65169e-45,8.88178e-16,6.10246e+06,363.016
0.00562,3.20991e-61,1,1.16722e-44,1.11022e-16,6.10246e+06,363.016
0.00564,1.97441e-60,1,5.09236e-44,1.88738e-15,6.10246e+06,363.017
0.00566,1.20422e-59,1,2.20196e-43,2.33147e-15,6.10246e+06,363.017
0.00568,7.28273e-59,1,9.43636e-43,1.77636e-15,6.10246e+06,363.017
0.0057,4.36714e-58,1,4.00763e-42,1.33227e-15,6.10246e+06,363.017
0.00572,2.59663e-57,1,1.68671e-41,1.22125e-15,6.10246e+06,363.018
0.00574,1.53083e-56,1,7.03468e-41,1.55431e-15,6.10246e+06,363.018
0.00576,8.94835e-56,1,2.90725e-40,1.44329e-15,6.10246e+06,363.018
0.00578,5.18618e-55,1,1.19052e-39,2.22045e-15,6.10246e+06,363.018
0.0058,2.98012e-54,1,4.83048e-39,1.77636e-15,6.10246e+06,363.019
0.00582,1.69782e-53,1,1.94188e-38,1.55431e-15,6.10246e+06,363.019
0.00584,9.58974e-53,1,7.73419e-38,1.9984e-15,6.10246e+06,363.019
0.00586,5.36995e-52,1,3.05175e-37,1.77636e-15,6.10246e+06,363.019
0.00588,2.98103e-51,1,1.1929e-36,1.66533e-15,6.10246e+06,363.02
0.0059,1.64051e-50,1,4.61916e-36,1.22125e-15,6.10246e+06,363.02
0.00592,8.9494e-50,1,1.77176e-35,1.33227e-15,6.10246e+06,363.02
0.00594,4.83937e-49,1,6.73146e-35,7.77156e-16,6.10246e+06,363.02
0.00596,2.59385e-48,1,2.53312e-34,0,6.10246e+06,363.021
0.00598,1.37797e-47,1,9.44114e-34,0,6.10246e+06,363.021
0.006,7.25522e-47,1,3.48493e-33,0,6.10246e+06,363.021
0.00602,3.78574e-46,1,1.27392e-32,0,6.10246e+06,363.022
0.00604,1.95755e-45,1,4.61154e-32,0,6.10246e+06,363.022
0.00606,1.00302e-44,1,1.65304e-31,0,6.10246e+06,363.022
0.00608,5.09223e-44,1,5.86723e-31,0,6.10246e+06,363.022
0.0061,2.5614e-43,1,2.06191e-30,0,6.10246e+06,363.023
0.00612,1.27639e-42,1,7.17409e-30,0,6.10246e+06,363.023
0.00614,6.3007e-42,1,2.47115e-29,6.66134e-16,6.10246e+06,363.023
0.00616,3.08076e-41,1,8.4264e-29,1.88738e-15,6.10246e+06,363.024
0.00618,1.49194e-40,1,2.84423e-28,2.33147e-15,6.10246e+06,363.024
0.0062,7.15533e-40,1,9.50251e-28,2.22045e-15,6.10246e+06,363.024
0.00622,3.39821e-39,1,3.14218e-27,1.77636e-15,6.10246e+06,363.025
0.00624,1.59797e-38,1,1.02828e-26,1.77636e-15,6.10246e+06,363.025
0.00626,7.43948e-38,1,3.32996e-26,1.9984e-15,6.10246e+06,363.025
0.00628,3.42866e-37,1,1.06704e-25,1.44329e-15,6.10246e+06,363.026
0.0063,1.56411e-36,1,3.38292e-25,1.66533e-15,6.10246e+06,363.026
0.00632,7.06195e-36,1,1.06104e-24,1.11022e-15,6.10246e+06,363.026
0.00634,3.15533e-35,1,3.29191e-24,1.33227e-15,6.10246e+06,363.027
0.00636,1.39501e-34,1,1.01016e-23,9.99201e-16,6.10246e+06,363.027
0.00638,6.10202e-34,1,3.06551e-23,6.66134e-16,6.10246e+06,363.027
0.0064,2.64045e-33,1,9.19857e-23,4.44089e-16,6.10246e+06,363.028
0.00642,1.13015e-32,1,2.72883e-22,8.88178e-16,6.10246e+06,363.028
0.00644,4.78406e-32,1,8.00196e-22,4.44089e-16,6.10246e+06,363.028
0.00646,2.00263e-31,1,2.31898e-21,2.22045e-16,6.10246e+06,363.029
0.00648,8.28886e-31,1,6.64034e-21,1.11022e-16,6.10246e+06,363.029
0.0065,3.39172e-30,1,1.87835e-20,1.11022e-15,6.10246e+06,363.03
0.00652,1.37189e-29,1,5.24745e-20,1.33227e-15,6.10246e+06,363.03
0.00654,5.48441e-29,1,1.4474e-19,9.99201e-16,6.10246e+06,363.03
0.00656,2.16669e-28,1,3.94063e-19,8.88178e-16,6.10246e+06,363.031
0.00658,8.45777e-28,1,1.05863e-18,1.44329e-15,6.10246e+06,363.031
0.0066,3.26173e-27,1,2.8052e-18,2.33147e-15,6.10246e+06,363.032
0.00662,1.24254e-26,1,7.32931e-18,1.22125e-15,6.10246e+06,363.032
0.00664,4.67494e-26,1,1.88737e-17,1.33227e-15,6.10246e+06,363.032
0.00666,1.73695e-25,1,4.78793e-17,1.11022e-15,6.10246e+06,363.033
0.00668,6.37196e-25,1,1.19596e-16,7.77156e-16,6.10246e+06,363.033
0.0067,2.30766e-24,1,2.9399e-16,1.44329e-15,6.10246e+06,363.034
0.00672,8.24924e-24,1,7.10777e-16,3.33067e-15,6.10246e+06,363.034
0.00674,2.91028e-23,1,1.68903e-15,9.76996e-15,6.10246e+06,363.034
0.00676,1.01312e-22,1,3.9422e-15,2.58682e-14,6.10246e+06,363.035
0.00678,3.47961e-22,1,9.03014e-15,6.07292e-14,6.10246e+06,363.035
0.0068,1.17887e-21,1,2.02828e-14,1.34448e-13,6.10246e+06,363.036
0.00682,3.93914e-21,1,4.46294e-14,2.93876e-13,6.10246e+06,363.036
0.00684,1.29796e-20,1,9.60953e-14,6.21503e-13,6.10246e+06,363.037
0.00686,4.21675e-20,1,2.02227e-13,1.28542e-12,6.10246e+06,363.037
0.00688,1.35046e-19,1,4.15365e-13,2.58782e-12,6.10246e+06,363.037
0.0069,4.26302e-19,1,8.3134e-13,5.07905e-12,6.10246e+06,363.038
0.00692,1.32639e-18,1,1.61845e-12,9.70535e-12,6.10246e+06,363.038
0.00694,4.06868e-18,1,3.05861e-12,1.80285e-11,6.10246e+06,363.039
0.00696,1.2317e-17,1,5.60037e-12,3.25121e-11,6.10246e+06,363.039
0.00698,3.69161e-17,1,9.92439e-12,5.68683e-11,6.10246e+06,363.04
0.007,1.10524e-16,1,1.70547e-11,9.67161e-11,6.10246e+06,363.04
0.00702,3.37915e-16,1,2.87091e-11,1.61562e-10,6.10246e+06,363.041
0.00704,1.09719e-15,1,4.84902e-11,2.71349e-10,6.10246e+06,363.042
0.00706,3.85675e-15,1,8.43605e-11,4.69771e-10,6.10246e+06,363.043
0.00708,1.41025e-14,1,1.51802e-10,8.41089e-10,6.10246e+06,363.044
0.0071,5.13571e-14,1,2.80429e-10,1.54529e-09,6.10246e+06,363.046
0.00712,1.82895e-13,1,5.2887e-10,2.89652e-09,6.10246e+06,363.049
0.00714,6.33445e-13,1,1.0146e-09,5.51843e-09,6.10246e+06,363.053
0.00716,2.13029e-12,1,1.97431e-09,1.06544e-08,6.10246e+06,363.06
0.00718,6.95306e-12,1,3.88656e-09,2.0789e-08,6.10246e+06,363.072
0.0072,2.20206e-11,1,7.72083e-09,4.08911e-08,6.10246e+06,363.089
0.00722,6.76619e-11,1,1.54415e-08,8.08851e-08,6.10246e+06,363.117
0.00724,2.01682e-10,1,3.10213e-08,1.60531e-07,6.10246e+06,363.161
0.00726,5.83102e-10,1,6.24654e-08,3.18967e-07,6.10246e+06,363.23
0.00728,1.63499e-09,0.999999,1.25807e-07,6.3315e-07,6.10246e+06,363.335
0.0073,4.44534e-09,0.999998,2.52894e-07,1.25296e-06,6.10246e+06,363.494
0.00732,1.17172e-08,0.999997,5.06323e-07,2.46685e-06,6.10246e+06,363.735
0.00734,2.99332e-08,0.999994,1.00749e-06,4.82212e-06,6.10246e+06,364.091
0.00736,7.40888e-08,0.999989,1.98809e-06,9.33984e-06,6.10246e+06,364.614
0.00738,1.77597e-07,0.999978,3.88208e-06,1.78884e-05,6.10246e+06,365.369
0.0074,4.12073e-07,0.999958,7.48456e-06,3.38113e-05,6.10246e+06,366.444
0.00742,9.24882e-07,0.999922,1.42162e-05,6.29425e-05,6.10246e+06,367.951
0.00744,2.0065e-06,0.999856,2.65435e-05,0.000115175,6.10246e+06,370.024
0.00746,4.2039e-06,0.99974,4.86129e-05,0.00020676,6.10246e+06,372.826
0.00748,8.49811e-06,0.999541,8.71483e-05,0.000363455,6.10246e+06,376.537
0.0075,1.65596e-05,0.999206,0.000152628,0.000624531,6.10246e+06,381.347
0.00752,3.10807e-05,0.998661,0.000260694,0.00104737,6.10246e+06,387.44
0.00754,5.61576e-05,0.997798,0.000433655,0.00171218,6.10246e+06,394.975
0.00756,9.76654e-05,0.996474,0.000701864,0.00272597,6.10246e+06,404.073
0.00758,0.000163546,0.994506,0.00110475,0.00422521,6.10246e+06,414.801
0.0076,0.000263935,0.991668,0.00169129,0.00637652,6.10246e+06,427.17
0.00762,0.0004111,0.987693,0.00251998,0.00937557,6.10246e+06,441.139
0.00764,0.000619195,0.982278,0.00365834,0.0134447,6.10246e+06,456.632
0.00766,0.00090392,0.975084,0.00518226,0.0188303,6.10246e+06,473.55
0.00768,0.00128216,0.965742,0.00717545,0.0257999,6.10246e+06,491.784
0.0077,0.00177171,0.953858,0.00972901,0.034641,6.10246e+06,511.227
0.00772,0.00239104,0.939009,0.0129412,0.0456591,6.10246e+06,531.776
0.00774,0.00315916,0.920748,0.0169168,0.0591758,6.10246e+06,553.326
0.00776,0.00409548,0.898614,0.0217663,0.0755246,6.10246e+06,575.765
0.00778,0.00521944,0.872134,0.0276032,0.0950432,6.10246e+06,598.96
0.0078,0.00654989,0.840852,0.0345398,0.118058,6.10246e+06,622.74
0.00782,0.00810387,0.804356,0.0426787,0.144862,6.10246e+06,646.883
0.00784,0.00989466,0.762331,0.0521012,0.175673,6.10246e+06,671.1
0.00786,0.0108813,0.739191,0.0573091,0.192618,6.10246e+06,683.127
0.00788,0.0142031,0.661362,0.0749071,0.249527,6.10246e+06,718.257
0.0079,0.0154253,0.632767,0.0813987,0.270409,6.10246e+06,729.462
0.00792,0.0193813,0.540391,0.102435,0.337793,6.10246e+06,760.779
0.00794,0.0221924,0.474967,0.117372,0.385469,6.10246e+06,779.267
0.00796,0.0250567,0.408542,0.132546,0.433855,6.10246e+06,795.554
0.00798,0.0278846,0.34326,0.147447,0.481408,6.10246e+06,809.588
0.008,0.0305831,0.281327,0.161549,0.526541,6.10246e+06,821.498
0.00802,0.0330683,0.224719,0.174384,0.567829,6.10246e+06,831.551
0.00804,0.0352774,0.174903,0.185611,0.604209,6.10246e+06,840.086
0.00806,0.037175,0.132677,0.195052,0.635096,6.10246e+06,847.44
0.00808,0.0387542,0.0981547,0.202694,0.660397,6.10246e+06,853.895
0.0081,0.0400321,0.0708757,0.208659,0.680433,6.10246e+06,859.66
0.00812,0.0410414,0.0499963,0.213156,0.695806,6.10246e+06,864.865
0.00814,0.041823,0.0344816,0.216436,0.707259,6.10246e+06,869.587
0.00816,0.0424194,0.0232677,0.21875,0.715563,6.10246e+06,873.861
0.00818,0.0428699,0.0153703,0.220329,0.721431,6.10246e+06,877.708
0.0082,0.0430514,0.0123949,0.220906,0.723648,6.10246e+06,879.475
0.00822,0.0434636,0.00630292,0.222025,0.728208,6.10246e+06,884.172
0.00824,0.0435666,0.00498004,0.222249,0.729205,6.10246e+06,885.543
0.00826,0.043804,0.0023841,0.22264,0.731172,6.10246e+06,889.113
0.00828,0.0439183,0.00142403,0.22275,0.731907,6.10246e+06,891.073
0.0083,0.0440073,0.000846034,0.222792,0.732355,6.10246e+06,892.721
0.00832,0.044078,0.000500994,0.222796,0.732625,6.10246e+06,894.096
0.00834,0.0441369,0.000281908,0.222783,0.732798,6.10246e+06,895.264
0.00836,0.044185,0.000155015,0.222761,0.732899,6.10246e+06,896.23
0.00838,0.0442246,8.35272e-05,0.222735,0.732957,6.10246e+06,897.021
0.0084,0.0442573,4.41097e-05,0.22271,0.732988,6.10246e+06,897.663
0.00842,0.0442843,2.28407e-05,0.222688,0.733005,6.10246e+06,898.179
0.00844,0.0443067,1.16154e-05,0.222669,0.733012,6.10246e+06,898.591
0.00846,0.0443249,5.9237e-06,0.222654,0.733015,6.10246e+06,898.914
0.00848,0.0443396,3.06523e-06,0.222642,0.733016,6.10246e+06,899.165
0.0085,0.0443521,1.45744e-06,0.222632,0.733015,6.10246e+06,899.368
0.00852,0.0443622,6.78795e-07,0.222624,0.733013,6.10246e+06,899.526
0.00854,0.0443665,4.59706e-07,0.222621,0.733012,6.10246e+06,899.59
0.00856,0.0443769,1.38237e-07,0.222613,0.73301,6.10246e+06,899.738
0.00858,0.0443796,9.16232e-08,0.222611,0.733009,6.10246e+06,899.776
0.0086,0.0443862,2.58459e-08,0.222607,0.733007,6.10246e+06,899.861
0.00862,0.0443895,1.08296e-08,0.222605,0.733005,6.10246e+06,899.9
0.00864,0.044392,4.44377e-09,0.222604,0.733004,6.10246e+06,899.928
0.00866,0.0443939,1.78565e-09,0.222603,0.733003,6.10246e+06,899.949
0.00868,0.0443955,7.02648e-10,0.222602,0.733003,6.10246e+06,899.965
0.0087,0.0443966,2.7075e-10,0.222601,0.733002,6.10246e+06,899.976
0.00872,0.0443975,1.02163e-10,0.222601,0.733002,6.10246e+06,899.984
0.00874,0.0443981,3.775e-11,0.222601,0.733001,6.10246e+06,899.989
0.00876,0.0443986,1.36599e-11,0.2226,0.733001,6.10246e+06,899.993
0.00878,0.044399,4.84055e-12,0.2226,0.733001,6.10246e+06,899.996
0.0088,0.0443993,1.67988e-12,0.2226,0.733,6.10246e+06,899.998
0.00882,0.0443995,5.71005e-13,0.2226,0.733,6.10246e+06,899.999
0.00884,0.0443996,1.90153e-13,0.2226,0.733,6.10246e+06,900
0.00886,0.0443997,6.20921e-14,0.2226,0.733,6.10246e+06,900.001
0.00888,0.0443998,3.52456e-14,0.2226,0.733,6.10246e+06,900.001
0.0089,0.0443999,6.34188e-15,0.2226,0.733,6.10246e+06,900.001
0.00892,0.0443999,3.58459e-15,0.2226,0.733,6.10246e+06,900.001
0.00894,0.0443999,6.80575e-16,0.2226,0.733,6.10246e+06,900.002
0.00896,0.0444,2.3747e-16,0.2226,0.733,6.10246e+06,900.002
0.00898,0.0444,8.72517e-17,0.2226,0.733,6.10246e+06,900.002
0.009,0.0444,3.1265e-17,0.2226,0.733,6.10246e+06,900.002
0.00902,0.0444,1.11798e-17,0.2226,0.733,6.10246e+06,900.002
0.00904,0.0444,3.96174e-18,0.2226,0.733,6.10246e+06,900.002
0.00906,0.0444,1.38765e-18,0.2226,0.733,6.10246e+06,900.001
0.00908,0.0444,4.8001e-19,0.2226,0.733,6.10246e+06,900.001
0.0091,0.0444,1.63939e-19,0.2226,0.733,6.10246e+06,900.001
0.00912,0.0444,5.52767e-20,0.2226,0.733,6.10246e+06,900.001
0.00914,0.0444,1.84002e-20,0.2226,0.733,6.10246e+06,900.001
0.00916,0.0444,6.047e-21,0.2226,0.733,6.10246e+06,900.001
0.00918,0.0444,1.96208e-21,0.2226,0.733,6.10246e+06,900.001
0.0092,0.0444,6.28619e-22,0.2226,0.733,6.10246e+06,900.001
0.00922,0.0444,3.54137e-22,0.2226,0.733,6.10246e+06,900.001
0.00924,0.0444,6.21415e-23,0.2226,0.733,6.10246e+06,900.001
0.00926,0.0444,1.91775e-23,0.2226,0.733,6.10246e+06,900.001
0.00928,0.0444,5.84613e-24,0.2226,0.733,6.10246e+06,900.001
0.0093,0.0444,1.76054e-24,0.2226,0.733,6.10246e+06,900.001
0.00932,0.0444,5.23789e-25,0.2226,0.733,6.10246e+06,900.001
0.00934,0.0444,1.53968e-25,0.2226,0.733,6.10246e+06,900.001
0.00936,0.0444,4.47197e-26,0.2226,0.733,6.10246e+06,900.001
0.00938,0.0444,1.28347e-26,0.2226,0.733,6.10246e+06,900.001