x,NH3,C7H16,O2,N2,p,T
0,1.67982e-322,1,0,0,6.10255e+06,363
2e-05,0,1,0,0,6.10255e+06,363
4e-05,1.63042e-322,1,1.4822e-322,1.11022e-16,6.10255e+06,363
6e-05,1.58101e-322,1,1.33398e-322,2.22045e-16,6.10255e+06,363
8e-05,3.45846e-323,1,0,4.44089e-16,6.10255e+06,363
0.0001,0,1,1.72923e-322,4.44089e-16,6.10255e+06,363
0.00012,0,1,0,2.22045e-16,6.10255e+06,363
0.00014,0,1,0,4.44089e-16,6.10255e+06,363
0.00016,0,1,1.58101e-322,2.22045e-16,6.10255e+06,363
0.00018,0,1,0,0,6.10255e+06,363
0.0002,1.97626e-323,1,0,3.33067e-16,6.10255e+06,363
0.00022,2.47033e-323,1,0,1.11022e-16,6.10255e+06,363
0.00024,0,1,1.5316e-322,6.66134e-16,6.10255e+06,363
0.00026,1.38338e-322,1,0,4.44089e-16,6.10255e+06,363
0.00028,3.95253e-323,1,1.33398e-322,1.11022e-16,6.10255e+06,363
0.0003,1.28457e-322,1,0,1.11022e-16,6.10255e+06,363
0.00032,1.43279e-322,1,0,0,6.10255e+06,363
0.00034,2.47033e-323,1,0,2.22045e-16,6.10255e+06,363
0.00036,1.33398e-322,1,0,4.44089e-16,6.10255e+06,363
0.00038,1.97626e-323,1,0,3.33067e-16,6.10255e+06,363
0.0004,1.67982e-322,1,0,3.33067e-16,6.10255e+06,363
0.00042,0,1,1.23516e-322,0,6.10255e+06,363
0.00044,0,1,0,0,6.10255e+06,363
0.00046,0,1,1.43279e-322,2.22045e-16,6.10255e+06,363
0.00048,0,1,1.58101e-322,2.22045e-16,6.10255e+06,363
0.0005,0,1,0,1.11022e-16,6.10255e+06,363
0.00052,1.38338e-322,1,0,0,6.10255e+06,363
0.00054,0,1,0,1.11022e-16,6.10255e+06,363
0.00056,1.38338e-322,1,1.38338e-322,3.33067e-16,6.10255e+06,363
0.00058,0,1,0,0,6.10255e+06,363
0.0006,0,1,1.33398e-322,4.44089e-16,6.10255e+06,363
0.00062,0,1,3.70549e-322,1.11022e-15,6.10255e+06,363
0.00064,0,1,6.42285e-322,1.44329e-15,6.10255e+06,363
0.00066,0,1,3.31024e-322,9.99201e-16,6.10255e+06,363
0.00068,1.58101e-322,1,6.62048e-322,1.44329e-15,6.10255e+06,363
0.0007,2.47033e-323,1,3.50787e-322,1.44329e-15,6.10255e+06,363
0.00072,0,1,6.66989e-322,1.33227e-15,6.10255e+06,363
0.00074,0,1,4.5454e-322,1.22125e-15,6.10255e+06,363
0.00076,0,1,6.52167e-322,1.33227e-15,6.10255e+06,363
0.00078,0,1,8.54734e-322,1.44329e-15,6.10255e+06,363
0.0008,0,1,1.16599e-321,1.33227e-15,6.10255e+06,363
0.00082,0,1,1.15117e-321,1.44329e-15,6.10255e+06,363
0.00084,0,1,1.13141e-321,1.55431e-15,6.10255e+06,363
0.00086,0,1,1.35868e-321,1.11022e-15,6.10255e+06,363
0.00088,2.47033e-323,1,1.13141e-321,7.77156e-16,6.10255e+06,363
0.0009,0,1,1.36856e-321,1.33227e-15,6.10255e+06,363
0.00092,0,1,1.99603e-321,1.77636e-15,6.10255e+06,363
0.00094,0,1,2.50491e-321,1.77636e-15,6.10255e+06,363
0.00096,0,1,2.54444e-321,1.33227e-15,6.10255e+06,363
0.00098,0,1,2.49009e-321,1.77636e-15,6.10255e+06,363
0.001,0,1,2.50985e-321,1.11022e-15,6.10255e+06,363
0.00102,0,1,2.55926e-321,1.22125e-15,6.10255e+06,363
0.00104,0,1,2.53456e-321,1.11022e-15,6.10255e+06,363
0.00106,0,1,2.56914e-321,9.99201e-16,6.10255e+06,363
0.00108,9.88131e-324,1,2.65313e-321,7.77156e-16,6.10255e+06,363
0.0011,1.23516e-322,1,2.66301e-321,7.77156e-16,6.10255e+06,363
0.00112,1.28457e-322,1,3.07309e-321,1.11022e-15,6.10255e+06,363
0.00114,0,1,3.16696e-321,1.22125e-15,6.10255e+06,363
0.00116,1.63042e-322,1,3.16696e-321,1.22125e-15,6.10255e+06,363
0.00118,0,1,3.19166e-321,1.11022e-15,6.10255e+06,363
0.0012,0,1,3.23613e-321,7.77156e-16,6.10255e+06,363
0.00122,1.38338e-322,1,3.13732e-321,1.55431e-15,6.10255e+06,363
0.00124,0,1,3.24601e-321,1.44329e-15,6.10255e+06,363
0.00126,0,1,3.17684e-321,1.33227e-15,6.10255e+06,363
0.00128,1.5316e-322,1,3.13732e-321,1.11022e-15,6.10255e+06,363
0.0013,0,1,3.24107e-321,8.88178e-16,6.10255e+06,363
0.00132,0,1,3.11261e-321,9.99201e-16,6.10255e+06,363
0.00134,0,1,3.21143e-321,9.99201e-16,6.10255e+06,363
0.00136,0,1,3.11755e-321,8.88178e-16,6.10255e+06,363
0.00138,0,1,3.23119e-321,9.99201e-16,6.10255e+06,363
0.0014,0,1,3.32506e-321,8.88178e-16,6.10255e+06,363
0.00142,0,1,3.10767e-321,9.99201e-16,6.10255e+06,363
0.00144,0,1,3.1966e-321,9.99201e-16,6.10255e+06,363
0.00146,0,1,3.17684e-321,4.44089e-16,6.10255e+06,363
0.00148,1.4822e-322,1,3.21637e-321,0,6.10255e+06,363
0.0015,1.63042e-322,1,3.19166e-321,0,6.10255e+06,363
0.00152,1.4822e-322,1,3.21143e-321,0,6.10255e+06,363
0.00154,0,1,3.34977e-321,0,6.10255e+06,363
0.00156,0,1,3.22625e-321,0,6.10255e+06,363
0.00158,0,1,3.25095e-321,0,6.10255e+06,363
0.0016,1.17094e-321,1,4.04146e-321,0,6.10255e+06,363
0.00162,1.37004e-320,1,3.94264e-321,1.11022e-16,6.10255e+06,363
0.00164,4.35702e-319,1,6.14618e-321,4.44089e-16,6.10255e+06,363
0.00166,1.52162e-317,1,7.69952e-320,2.22045e-16,6.10255e+06,363
0.00168,5.31439e-316,1,2.62338e-318,1.11022e-16,6.10255e+06,363
0.0017,1.84664e-314,1,9.35178e-317,1.11022e-15,6.10255e+06,363
0.00172,6.38288e-313,1,3.3213e-315,7.77156e-16,6.10255e+06,363
0.00174,2.19455e-311,1,1.17336e-313,1.33227e-15,6.10255e+06,363
0.00176,7.50525e-310,1,4.12323e-312,1.66533e-15,6.10255e+06,363
0.00178,2.5531e-308,1,1.44119e-310,8.88178e-16,6.10255e+06,363
0.0018,8.63866e-307,1,5.01043e-309,6.66134e-16,6.10255e+06,363
0.00182,2.90734e-305,1,1.73258e-307,7.77156e-16,6.10255e+06,363
0.00184,9.7322e-304,1,5.95896e-306,1.33227e-15,6.10255e+06,363
0.00186,3.24029e-302,1,2.03845e-304,8.88178e-16,6.10255e+06,363
0.00188,1.07302e-300,1,6.93543e-303,8.88178e-16,6.10255e+06,363
0.0019,3.53411e-299,1,2.34686e-301,1.11022e-15,6.10255e+06,363
0.00192,1.15768e-297,1,7.89828e-300,7.77156e-16,6.10255e+06,363
0.00194,3.77166e-296,1,2.64365e-298,5.55112e-16,6.10255e+06,363
0.00196,1.22209e-294,1,8.80028e-297,1.55431e-15,6.10255e+06,363
0.00198,3.93814e-293,1,2.91341e-295,1.11022e-15,6.10255e+06,363
0.002,1.2621e-291,1,9.59209e-294,8.88178e-16,6.10255e+06,363
0.00202,4.02256e-290,1,3.14069e-292,9.99201e-16,6.10255e+06,363
0.00204,1.275e-288,1,1.02266e-290,8.88178e-16,6.10255e+06,363
0.00206,7.16331e-288,1,5.82341e-290,9.99201e-16,6.10255e+06,363
0.00208,1.25981e-285,1,1.06633e-287,9.99201e-16,6.10255e+06,363
0.0021,3.92711e-284,1,3.41458e-286,1.66533e-15,6.10255e+06,363
0.00212,1.21735e-282,1,1.0873e-284,1.55431e-15,6.10255e+06,363
0.00214,3.75255e-281,1,3.44285e-283,1.44329e-15,6.10255e+06,363
0.00216,1.15026e-279,1,1.08403e-281,1.55431e-15,6.10255e+06,363
0.00218,3.50604e-278,1,3.39399e-280,1.44329e-15,6.10255e+06,363
0.0022,1.06264e-276,1,1.05662e-278,1.11022e-15,6.10255e+06,363
0.00222,3.20252e-275,1,3.27082e-277,8.88178e-16,6.10255e+06,363
0.00224,9.59691e-274,1,1.00675e-275,1.55431e-15,6.10255e+06,363
0.00226,2.85954e-272,1,3.08108e-274,1.44329e-15,6.10255e+06,363
0.00228,8.47184e-271,1,9.37553e-273,1.44329e-15,6.10255e+06,363
0.0023,2.49557e-269,1,2.83656e-271,1.44329e-15,6.10255e+06,363
0.00232,7.30915e-268,1,8.53266e-270,7.77156e-16,6.10255e+06,363
0.00234,2.12843e-266,1,2.55191e-268,6.66134e-16,6.10255e+06,363
0.00236,6.16229e-265,1,7.58803e-267,6.66134e-16,6.10255e+06,363
0.00238,1.77381e-263,1,2.24319e-265,5.55112e-16,6.10255e+06,363
0.0024,5.07628e-262,1,6.59282e-264,2.22045e-16,6.10255e+06,363
0.00242,1.44428e-260,1,1.92635e-262,2.22045e-16,6.10255e+06,363
0.00244,4.08524e-259,1,5.59567e-261,2.22045e-16,6.10255e+06,363
0.00246,1.14878e-257,1,1.6159e-259,6.66134e-16,6.10255e+06,363
0.00248,3.21144e-256,1,4.63887e-258,8.88178e-16,6.10255e+06,363
0.0025,8.92486e-255,1,1.32386e-256,1.11022e-15,6.10255e+06,363
0.00252,2.46566e-253,1,3.75571e-255,8.88178e-16,6.10255e+06,363
0.00254,6.77152e-252,1,1.05915e-253,5.55112e-16,6.10255e+06,363
0.00256,1.84865e-250,1,2.96912e-252,4.44089e-16,6.10255e+06,363
0.00258,5.01683e-249,1,8.27368e-251,4.44089e-16,6.10255e+06,363
0.0026,1.35333e-247,1,2.29171e-249,9.99201e-16,6.10255e+06,363
0.00262,3.62885e-246,1,6.30965e-248,7.77156e-16,6.10255e+06,363
0.00264,9.67205e-245,1,1.72674e-246,1.11022e-15,6.10255e+06,363
0.00266,2.56238e-243,1,4.69693e-245,1.11022e-15,6.10255e+06,363
0.00268,6.7474e-242,1,1.26988e-243,1.9984e-15,6.10255e+06,363
0.0027,1.76599e-240,1,3.4124e-242,1.77636e-15,6.10255e+06,363
0.00272,4.59402e-239,1,9.11386e-241,1.22125e-15,6.10255e+06,363
0.00274,1.18779e-237,1,2.41924e-239,1.44329e-15,6.10255e+06,363
0.00276,3.05228e-236,1,6.38241e-238,1.44329e-15,6.10255e+06,363
0.00278,7.79534e-235,1,1.67343e-236,1.33227e-15,6.10255e+06,363
0.0028,1.97863e-233,1,4.36056e-235,1.11022e-15,6.10255e+06,363
0.00282,4.99121e-232,1,1.12922e-233,6.66134e-16,6.10255e+06,363
0.00284,1.25126e-230,1,2.90609e-232,1.11022e-16,6.10255e+06,363
0.00286,3.11736e-229,1,7.43231e-231,1.11022e-16,6.10255e+06,363
0.00288,7.71808e-228,1,1.88893e-229,1.11022e-16,6.10255e+06,363
0.0029,1.89893e-226,1,4.77065e-228,0,6.10255e+06,363
0.00292,4.64279e-225,1,1.19729e-226,4.44089e-16,6.10255e+06,363
0.00294,1.128e-223,1,2.98587e-225,5.55112e-16,6.10255e+06,363
0.00296,2.72326e-222,1,7.3992e-224,7.77156e-16,6.10255e+06,363
0.00298,6.53301e-221,1,1.82193e-222,1.11022e-15,6.10255e+06,363
0.003,1.55729e-219,1,4.45765e-221,9.99201e-16,6.10255e+06,363
0.00302,3.68853e-218,1,1.08367e-219,1.22125e-15,6.10255e+06,363
0.00304,8.68067e-217,1,2.61753e-218,1.55431e-15,6.10255e+06,363
0.00306,2.02983e-215,1,6.28183e-217,1.33227e-15,6.10255e+06,363
0.00308,4.71591e-214,1,1.49786e-215,1.44329e-15,6.10255e+06,363
0.0031,1.08858e-212,1,3.54841e-214,1.44329e-15,6.10255e+06,363
0.00312,2.49652e-211,1,8.35157e-213,9.99201e-16,6.10255e+06,363
0.00314,5.68829e-210,1,1.95283e-211,1.11022e-16,6.10255e+06,363
0.00316,1.28763e-208,1,4.53642e-210,2.22045e-16,6.10255e+06,363
0.00318,2.89569e-207,1,1.0469e-208,9.99201e-16,6.10255e+06,363
0.0032,6.46929e-206,1,2.40011e-207,1.11022e-15,6.10255e+06,363
0.00322,1.43581e-204,1,5.46615e-206,1.44329e-15,6.10255e+06,363
0.00324,3.16562e-203,1,1.23665e-204,1.33227e-15,6.10255e+06,363
0.00326,6.93327e-202,1,2.77917e-203,4.44089e-16,6.10255e+06,363
0.00328,1.50842e-200,1,6.20413e-202,7.77156e-16,6.10255e+06,363
0.0033,3.25989e-199,1,1.37573e-200,1.11022e-15,6.10255e+06,363
0.00332,6.99791e-198,1,3.03012e-199,1.55431e-15,6.10255e+06,363
0.00334,1.49215e-196,1,6.62908e-198,7.77156e-16,6.10255e+06,363
0.00336,3.16024e-195,1,1.44047e-196,1.55431e-15,6.10255e+06,363
0.00338,6.64793e-194,1,3.10884e-195,1.55431e-15,6.10255e+06,363
0.0034,1.38899e-192,1,6.66394e-194,1.22125e-15,6.10255e+06,363
0.00342,2.88236e-191,1,1.4187e-192,7.77156e-16,6.10255e+06,363
0.00344,5.9405e-190,1,2.9996e-191,7.77156e-16,6.10255e+06,363
0.00346,1.21595e-188,1,6.29859e-190,8.88178e-16,6.10255e+06,363
0.00348,2.4718e-187,1,1.31346e-188,6.66134e-16,6.10255e+06,363
0.0035,4.99007e-186,1,2.72006e-187,1.22125e-15,6.10255e+06,363
0.00352,1.00043e-184,1,5.59388e-186,6.66134e-16,6.10255e+06,363
0.00354,1.99177e-183,1,1.14238e-184,4.44089e-16,6.10255e+06,363
0.00356,3.93782e-182,1,2.31666e-183,3.33067e-16,6.10255e+06,363
0.00358,7.73085e-181,1,4.66505e-182,4.44089e-16,6.10255e+06,363
0.0036,1.5071e-179,1,9.32786e-181,9.99201e-16,6.10255e+06,363
0.00362,2.91734e-178,1,1.85195e-179,1.11022e-15,6.10255e+06,363
0.00364,5.60731e-177,1,3.65077e-178,5.55112e-16,6.10255e+06,363
0.00366,1.07012e-175,1,7.1456e-177,7.77156e-16,6.10255e+06,363
0.00368,2.02772e-174,1,1.38861e-175,7.77156e-16,6.10255e+06,363
0.0037,3.81481e-173,1,2.67917e-174,1.22125e-15,6.10255e+06,363
0.00372,7.12547e-172,1,5.13197e-173,8.88178e-16,6.10255e+06,363
0.00374,1.32136e-170,1,9.75936e-172,1.44329e-15,6.10255e+06,363
0.00376,2.43265e-169,1,1.84247e-170,1.44329e-15,6.10255e+06,363
0.00378,4.44614e-168,1,3.45312e-169,9.99201e-16,6.10255e+06,363
0.0038,8.0671e-167,1,6.42452e-168,6.66134e-16,6.10255e+06,363
0.00382,1.45302e-165,1,1.18653e-166,6.66134e-16,6.10255e+06,363
0.00384,2.59796e-164,1,2.17525e-165,5.55112e-16,6.10255e+06,363
0.00386,4.61093e-163,1,3.95844e-164,9.99201e-16,6.10255e+06,363
0.00388,8.12325e-162,1,7.15008e-163,7.77156e-16,6.10255e+06,363
0.0039,1.4205e-160,1,1.28191e-161,3.33067e-16,6.10255e+06,363
0.00392,2.46555e-159,1,2.28113e-160,3.33067e-16,6.10255e+06,363
0.00394,4.24751e-158,1,4.02883e-159,1.11022e-16,6.10255e+06,363
0.00396,7.26256e-157,1,7.06203e-158,1.11022e-16,6.10255e+06,363
0.00398,1.23245e-155,1,1.22854e-156,2.22045e-16,6.10255e+06,363
0.004,2.07566e-154,1,2.12104e-155,3.33067e-16,6.10255e+06,363
0.00402,3.46931e-153,1,3.63405e-154,3.33067e-16,6.10255e+06,363
0.00404,5.75459e-152,1,6.17883e-153,4.44089e-16,6.10255e+06,363
0.00406,9.47236e-151,1,1.04251e-151,3.33067e-16,6.10255e+06,363
0.00408,1.54725e-149,1,1.74542e-150,1.33227e-15,6.10255e+06,363
0.0041,2.50791e-148,1,2.8997e-149,9.99201e-16,6.10255e+06,363
0.00412,1.00676e-147,1,1.17845e-148,6.66134e-16,6.10255e+06,363
0.00414,6.43723e-146,1,7.81817e-147,7.77156e-16,6.10255e+06,363
0.00416,1.01932e-144,1,1.26876e-145,5.55112e-16,6.10255e+06,363
0.00418,1.60145e-143,1,2.04282e-144,2.22045e-16,6.10255e+06,363
0.0042,2.49632e-142,1,3.26324e-143,0,6.10255e+06,363
0.00422,3.86057e-141,1,5.17154e-142,5.55112e-16,6.10255e+06,363
0.00424,5.92319e-140,1,8.13073e-141,8.88178e-16,6.10255e+06,363
0.00426,9.01571e-139,1,1.26813e-139,9.99201e-16,6.10255e+06,363
0.00428,1.36135e-137,1,1.96205e-138,1.22125e-15,6.10255e+06,363
0.0043,2.03915e-136,1,3.01128e-137,6.66134e-16,6.10255e+06,363
0.00432,3.0299e-135,1,4.58433e-136,4.44089e-16,6.10255e+06,363
0.00434,4.46569e-134,1,6.92258e-135,4.44089e-16,6.10255e+06,363
0.00436,6.52858e-133,1,1.03685e-133,6.66134e-16,6.10255e+06,363
0.00438,9.46679e-132,1,1.54028e-132,3.33067e-16,6.10255e+06,363
0.0044,1.36153e-130,1,2.26939e-131,6.66134e-16,6.10255e+06,363
0.00442,1.94212e-129,1,3.31611e-130,1.22125e-15,6.10255e+06,363
0.00444,2.74749e-128,1,4.80555e-129,1.22125e-15,6.10255e+06,363
0.00446,1.03018e-127,1,1.82366e-128,1.55431e-15,6.10255e+06,363
0.00448,5.36323e-126,1,9.8423e-127,1.44329e-15,6.10255e+06,363
0.0045,7.39993e-125,1,1.39093e-125,1.44329e-15,6.10255e+06,363
0.00452,1.01246e-123,1,1.94916e-124,8.88178e-16,6.10255e+06,363
0.00454,1.37362e-122,1,2.70837e-123,5.55112e-16,6.10255e+06,363
0.00456,1.84787e-121,1,3.73141e-122,5.55112e-16,6.10255e+06,363
0.00458,2.4648e-120,1,5.09711e-121,8.88178e-16,6.10255e+06,363
0.0046,3.25971e-119,1,6.90315e-120,8.88178e-16,6.10255e+06,363
0.00462,4.27415e-118,1,9.26884e-119,1.22125e-15,6.10255e+06,363
0.00464,5.55619e-117,1,1.2338e-117,1.11022e-15,6.10255e+06,363
0.00466,7.16052e-116,1,1.62811e-116,7.77156e-16,6.10255e+06,363
0.00468,9.1482e-115,1,2.12977e-115,8.88178e-16,6.10255e+06,363
0.0047,1.1586e-113,1,2.76167e-114,2.22045e-16,6.10255e+06,363
0.00472,1.45454e-112,1,3.54964e-113,1.11022e-16,6.10255e+06,363
0.00474,1.81006e-111,1,4.52225e-112,0,6.10255e+06,363
0.00476,2.23263e-110,1,5.71037e-111,2.22045e-16,6.10255e+06,363
0.00478,2.7295e-109,1,7.14658e-110,5.55112e-16,6.10255e+06,363
0.0048,3.30729e-108,1,8.86417e-109,3.33067e-16,6.10255e+06,363
0.00482,3.97165e-107,1,1.0896e-107,1.33227e-15,6.10255e+06,363
0.00484,4.72671e-106,1,1.3273e-106,0,6.10255e+06,363
0.00486,5.57468e-105,1,1.60222e-105,5.55112e-16,6.10255e+06,363
0.00488,6.51533e-104,1,1.91653e-104,2.22045e-16,6.10255e+06,363
0.0049,7.54556e-103,1,2.27157e-103,3.33067e-16,6.10255e+06,363
0.00492,8.65898e-102,1,2.6677e-102,3.33067e-16,6.10255e+06,363
0.00494,9.84565e-101,1,3.10408e-101,1.11022e-16,6.10255e+06,363
0.00496,1.10919e-99,1,3.57843e-100,1.11022e-16,6.10255e+06,363
0.00498,1.23804e-98,1,4.08695e-99,3.33067e-16,6.10255e+06,363
0.005,1.36903e-97,1,4.62418e-98,2.22045e-16,6.10255e+06,363
0.00502,1.49975e-96,1,5.18298e-97,0,6.10255e+06,363
0.00504,1.62756e-95,1,5.7546e-96,1.11022e-16,6.10255e+06,363
0.00506,1.74963e-94,1,6.32882e-95,0,6.10255e+06,363
0.00508,1.86308e-93,1,6.89421e-94,6.66134e-16,6.10255e+06,363
0.0051,1.96503e-92,1,7.4384e-93,1.11022e-16,6.10255e+06,363
0.00512,6.35886e-92,1,2.43449e-92,2.22045e-16,6.10255e+06,363
0.00514,2.1239e-90,1,8.41189e-91,2.22045e-16,6.10255e+06,363
0.00516,2.17631e-89,1,8.81603e-90,1.11022e-16,6.10255e+06,363
0.00518,2.20843e-88,1,9.14972e-89,3.33067e-16,6.10255e+06,363
0.0052,2.21924e-87,1,9.40323e-88,0,6.10255e+06,363
0.00522,2.20831e-86,1,9.56888e-87,1.11022e-16,6.10255e+06,363
0.00524,2.17586e-85,1,9.64136e-86,2.22045e-16,6.10255e+06,363
0.00526,2.12274e-84,1,9.61807e-85,1.11022e-16,6.10255e+06,363
0.00528,2.05038e-83,1,9.49923e-84,3.33067e-16,6.10255e+06,363
0.0053,1.96077e-82,1,9.28791e-83,4.44089e-16,6.10255e+06,363
0.00532,1.85629e-81,1,8.98991e-82,4.44089e-16,6.10255e+06,363
0.00534,1.7397e-80,1,8.61344e-81,1.11022e-16,6.10255e+06,363
0.00536,1.61394e-79,1,8.16884e-80,0,6.10255e+06,363
0.00538,1.48206e-78,1,7.66802e-79,3.33067e-16,6.10255e+06,363
0.0054,1.34704e-77,1,7.12395e-78,2.22045e-16,6.10255e+06,363
0.00542,1.21174e-76,1,6.55012e-77,7.77156e-16,6.10255e+06,363
0.00544,1.07877e-75,1,5.95998e-76,0,6.10255e+06,363
0.00546,9.50424e-75,1,5.36638e-75,9.99201e-16,6.10255e+06,363
0.00548,8.28602e-74,1,4.78118e-74,0,6.10255e+06,363
0.0055,7.14809e-73,1,4.21482e-73,1.11022e-16,6.10255e+06,363
0.00552,6.10133e-72,1,3.67611e-72,0,6.10255e+06,363
0.00554,5.15255e-71,1,3.17201e-71,0,6.10255e+06,363
0.00556,4.30485e-70,1,2.70765e-70,9.99201e-16,6.10255e+06,363
0.00558,3.55798e-69,1,2.2863e-69,1.33227e-15,6.10255e+06,363
0.0056,2.90892e-68,1,1.90954e-68,8.88178e-16,6.10255e+06,363
0.00562,2.35242e-67,1,1.57744e-67,1.22125e-15,6.10255e+06,363
0.00564,1.88159e-66,1,1.28878e-66,4.44089e-16,6.10255e+06,363
0.00566,1.48845e-65,1,1.04129e-65,6.66134e-16,6.10255e+06,363
0.00568,1.16444e-64,1,8.31973e-65,1.55431e-15,6.10255e+06,363
0.0057,9.00822e-64,1,6.57292e-64,2.33147e-15,6.10255e+06,363
0.00572,6.89088e-63,1,5.13442e-63,1.33227e-15,6.10255e+06,363
0.00574,5.21189e-62,1,3.96533e-62,1.55431e-15,6.10255e+06,363
0.00576,3.89736e-61,1,3.02755e-61,5.55112e-16,6.10255e+06,363
0.00578,2.8812e-60,1,2.28507e-60,1.33227e-15,6.10255e+06,363
0.0058,2.10559e-59,1,1.7048e-59,9.99201e-16,6.10255e+06,363
0.00582,1.52104e-58,1,1.25714e-58,1.22125e-15,6.10255e+06,363
0.00584,1.08605e-57,1,9.16224e-58,8.88178e-16,6.10255e+06,363
0.00586,7.66418e-57,1,6.59928e-57,0,6.10255e+06,363
0.00588,5.3452e-56,1,4.6972e-56,0,6.10255e+06,363
0.0059,3.68395e-55,1,3.3037e-55,0,6.10255e+06,363
0.00592,2.50891e-54,1,2.29588e-54,0,6.10255e+06,363
0.00594,1.6883e-53,1,1.57637e-53,0,6.10255e+06,363
0.00596,1.12248e-52,1,1.06929e-52,0,6.10255e+06,363
0.00598,7.37299e-52,1,7.16532e-52,0,6.10255e+06,363
0.006,4.78422e-51,1,4.74289e-51,0,6.10255e+06,363
0.00602,3.06658e-50,1,3.10092e-50,0,6.10255e+06,363
0.00604,1.94152e-49,1,2.00238e-49,0,6.10255e+06,363
0.00606,1.21407e-48,1,1.27697e-48,0,6.10255e+06,363
0.00608,7.49775e-48,1,8.04199e-48,0,6.10255e+06,363
0.0061,4.57267e-47,1,5.00106e-47,0,6.10255e+06,363
0.00612,2.75378e-46,1,3.07075e-46,0,6.10255e+06,363
0.00614,1.63749e-45,1,1.86157e-45,0,6.10255e+06,363
0.00616,9.61358e-45,1,1.11412e-44,0,6.10255e+06,363
0.00618,5.57204e-44,1,6.58222e-44,0,6.10255e+06,363
0.0062,3.18811e-43,1,3.8385e-43,0,6.10255e+06,363
0.00622,1.80055e-42,1,2.20936e-42,0,6.10255e+06,363
0.00624,1.00368e-41,1,1.25502e-41,0,6.10255e+06,363
0.00626,5.52168e-41,1,7.03525e-41,0,6.10255e+06,363
0.00628,2.9977e-40,1,3.89144e-40,0,6.10255e+06,363
0.0063,1.60588e-39,1,2.12376e-39,0,6.10255e+06,363
0.00632,8.48792e-39,1,1.14347e-38,0,6.10255e+06,363
0.00634,4.42604e-38,1,6.07336e-38,0,6.10255e+06,363
0.00636,2.27674e-37,1,3.18179e-37,0,6.10255e+06,363
0.00638,1.15518e-36,1,1.64404e-36,0,6.10255e+06,363
0.0064,5.7808e-36,1,8.37737e-36,0,6.10255e+06,363
0.00642,2.85285e-35,1,4.20933e-35,0,6.10255e+06,363
0.00644,1.3883e-34,1,2.08537e-34,0,6.10255e+06,363
0.00646,6.66122e-34,1,1.01853e-33,0,6.10255e+06,363
0.00648,3.15102e-33,1,4.90395e-33,0,6.10255e+06,363
0.0065,1.46937e-32,1,2.32729e-32,1.11022e-16,6.10255e+06,363
0.00652,6.75385e-32,1,1.08855e-31,0,6.10255e+06,363
0.00654,3.05964e-31,1,5.01758e-31,0,6.10255e+06,363
0.00656,1.36599e-30,1,2.27902e-30,0,6.10255e+06,363
0.00658,6.00949e-30,1,1.01992e-29,0,6.10255e+06,363
0.0066,2.60496e-29,1,4.4968e-29,0,6.10255e+06,363
0.00662,1.11248e-28,1,1.95308e-28,0,6.10255e+06,363
0.00664,4.68029e-28,1,8.35543e-28,0,6.10255e+06,363
0.00666,1.93951e-27,1,3.52051e-27,1.11022e-16,6.10255e+06,363
0.00668,7.91601e-27,1,1.46078e-26,0,6.10255e+06,363
0.0067,3.18177e-26,1,5.96838e-26,0,6.10255e+06,363
0.00672,1.25931e-25,1,2.4009e-25,0,6.10255e+06,363
0.00674,4.90737e-25,1,9.50797e-25,2.22045e-16,6.10255e+06,363
0.00676,1.88264e-24,1,3.70635e-24,0,6.10255e+06,363
0.00678,7.10944e-24,1,1.42199e-23,3.33067e-16,6.10255e+06,363
0.0068,2.64241e-23,1,5.3689e-23,3.33067e-16,6.10255e+06,363
0.00682,9.66511e-23,1,1.9946e-22,0,6.10255e+06,363
0.00684,3.47853e-22,1,7.2903e-22,0,6.10255e+06,363
0.00686,1.23169e-21,1,2.62115e-21,1.22125e-15,6.10255e+06,363
0.00688,4.28995e-21,1,9.26868e-21,7.77156e-16,6.10255e+06,363
0.0069,1.46945e-20,1,3.22279e-20,1.11022e-15,6.10255e+06,363
0.00692,4.94887e-20,1,1.1016e-19,3.33067e-16,6.10255e+06,363
0.00694,1.63829e-19,1,3.70068e-19,0,6.10255e+06,363
0.00696,5.33004e-19,1,1.22156e-18,0,6.10255e+06,363
0.00698,1.70424e-18,1,3.96217e-18,0,6.10255e+06,363
0.007,5.35694e-18,1,1.2632e-17,0,6.10255e+06,363
0.00702,1.65822e-17,1,3.96547e-17,8.88178e-16,6.10255e+06,363
0.00704,5.05683e-17,1,1.2263e-16,1.55431e-15,6.10255e+06,363
0.00706,1.52412e-16,1,3.74798e-16,2.66454e-15,6.10255e+06,363
0.00708,4.78224e-16,1,1.1942e-15,9.10383e-15,6.10255e+06,363
0.0071,1.58957e-15,1,4.03911e-15,3.58602e-14,6.10255e+06,363
0.00712,5.58815e-15,1,1.44806e-14,1.31894e-13,6.10255e+06,363
0.00714,1.99517e-14,1,5.27772e-14,4.70513e-13,6.10255e+06,363
0.00716,7.02508e-14,1,1.89703e-13,1.62192e-12,6.10255e+06,363.001
0.00718,2.41299e-13,1,6.64941e-13,5.4351e-12,6.10255e+06,363.001
0.0072,8.05615e-13,1,2.26439e-12,1.76864e-11,6.10255e+06,363.002
0.00722,2.61278e-12,1,7.48692e-12,5.5959e-11,6.10255e+06,363.004
0.00724,8.23059e-12,1,2.40319e-11,1.72087e-10,6.10255e+06,363.008
0.00726,2.51815e-11,1,7.48815e-11,5.14298e-10,6.10255e+06,363.014
0.00728,7.48225e-11,1,2.26486e-10,1.4937e-09,6.10255e+06,363.024
0.0073,2.15905e-10,1,6.64918e-10,4.21578e-09,6.10255e+06,363.041
0.00732,6.04991e-10,1,1.89467e-09,1.15621e-08,6.10255e+06,363.069
0.00734,1.64614e-09,1,5.23978e-09,3.08117e-08,6.10255e+06,363.115
0.00736,4.34896e-09,1,1.40631e-08,7.97794e-08,6.10255e+06,363.19
0.00738,1.11549e-08,1,3.66266e-08,2.0069e-07,6.10255e+06,363.308
0.0074,2.77748e-08,0.999999,9.25586e-08,4.90429e-07,6.10255e+06,363.492
0.00742,6.71228e-08,0.999999,2.26921e-07,1.16407e-06,6.10255e+06,363.775
0.00744,1.57406e-07,0.999997,5.39616e-07,2.6832e-06,6.10255e+06,364.204
0.00746,3.58074e-07,0.999992,1.24431e-06,6.00459e-06,6.10255e+06,364.841
0.00748,7.89849e-07,0.999983,2.7813e-06,1.30414e-05,6.10255e+06,365.771
0.0075,1.68852e-06,0.999965,6.02345e-06,2.74777e-05,6.10255e+06,367.107
0.00752,3.49605e-06,0.999928,1.26321e-05,5.61335e-05,6.10255e+06,368.986
0.00754,7.00526e-06,0.999856,2.56358e-05,0.000111115,6.10255e+06,371.575
0.00756,1.35731e-05,0.999723,5.03087e-05,0.000212973,6.10255e+06,375.066
0.00758,2.54077e-05,0.999484,9.53991e-05,0.00039498,6.10255e+06,379.663
0.0076,4.59149e-05,0.999071,0.00017469,0.00070836,6.10255e+06,385.565
0.00762,8.00589e-05,0.998383,0.000308766,0.00122795,6.10255e+06,392.952
0.00764,0.000134668,0.997281,0.00052673,0.00205741,6.10255e+06,401.958
0.00766,0.000218603,0.995581,0.000867566,0.00333286,6.10255e+06,412.658
0.00768,0.000342747,0.993052,0.00138087,0.00522436,6.10255e+06,425.065
0.0077,0.000519808,0.989418,0.00212688,0.00793482,6.10255e+06,439.136
0.00772,0.00076401,0.984363,0.00317589,0.0116972,6.10255e+06,454.785
0.00774,0.00109076,0.977531,0.00460738,0.0167709,6.10255e+06,471.899
0.00776,0.00151641,0.968536,0.00650919,0.0234382,6.10255e+06,490.362
0.00778,0.00205807,0.956963,0.0089769,0.0320018,6.10255e+06,510.054
0.0078,0.00273366,0.94237,0.0121134,0.0427831,6.10255e+06,530.866
0.00782,0.00356183,0.92429,0.0160284,0.0561195,6.10255e+06,552.689
0.00784,0.00456193,0.902239,0.0208376,0.0723612,6.10255e+06,575.408
0.00786,0.00513262,0.88957,0.0236146,0.0816825,6.10255e+06,587.061
0.00788,0.00715648,0.844263,0.0336132,0.114968,6.10255e+06,622.949
0.0079,0.00794264,0.826539,0.0375485,0.12797,6.10255e+06,635.132
0.00792,0.0106617,0.764868,0.0513242,0.173146,6.10255e+06,671.854
0.00794,0.0127842,0.716442,0.0622143,0.208559,6.10255e+06,696.026
0.00796,0.0151509,0.662256,0.0744588,0.248135,6.10255e+06,719.452
0.00798,0.0177412,0.602793,0.087951,0.291515,6.10255e+06,741.66
0.008,0.0205146,0.539007,0.102471,0.338007,6.10255e+06,762.196
0.00802,0.0234086,0.472365,0.117675,0.386552,6.10255e+06,780.688
0.00804,0.02634,0.404809,0.1331,0.435751,6.10255e+06,796.913
0.00806,0.0292123,0.338597,0.14821,0.48398,6.10255e+06,810.836
0.00808,0.0319271,0.276036,0.162456,0.529581,6.10255e+06,822.611
0.0081,0.034398,0.219153,0.175357,0.571091,6.10255e+06,832.531
0.00812,0.0365633,0.169414,0.186574,0.607449,6.10255e+06,840.954
0.00814,0.0383922,0.127562,0.19594,0.638106,6.10255e+06,848.224
0.00816,0.0398841,0.0936191,0.203464,0.663033,6.10255e+06,854.626
0.00818,0.0410633,0.0670303,0.209288,0.682618,6.10255e+06,860.358
0.0082,0.0415475,0.0562114,0.211633,0.690608,6.10255e+06,863.014
0.00822,0.0426477,0.0320218,0.216789,0.708542,6.10255e+06,870.25
0.00824,0.0429165,0.0262489,0.217992,0.712843,6.10255e+06,872.434
0.00826,0.043504,0.0139938,0.220476,0.722026,6.10255e+06,878.331
0.00828,0.0437589,0.00895894,0.221446,0.725837,6.10255e+06,881.733
0.0083,0.0439382,0.00561681,0.222052,0.728393,6.10255e+06,884.727
0.00832,0.044064,0.00344938,0.222413,0.730073,6.10255e+06,887.334
0.00834,0.0441522,0.00207549,0.222614,0.731158,6.10255e+06,889.58
0.00836,0.0442145,0.00122429,0.222713,0.731848,6.10255e+06,891.492
0.00838,0.0442584,0.000719582,0.222751,0.732271,6.10255e+06,893.09
0.0084,0.04429,0.000423474,0.222755,0.732532,6.10255e+06,894.415
0.00842,0.0443146,0.00023553,0.222744,0.732705,6.10255e+06,895.54
0.00844,0.0443332,0.000127685,0.222726,0.732813,6.10255e+06,896.466
0.00846,0.0443475,6.77611e-05,0.222705,0.73288,6.10255e+06,897.221
0.00848,0.0443586,3.52115e-05,0.222685,0.732922,6.10255e+06,897.83
0.0085,0.0443674,1.79151e-05,0.222667,0.732948,6.10255e+06,898.318
0.00852,0.0443743,8.92385e-06,0.222652,0.732965,6.10255e+06,898.706
0.00854,0.0443773,6.2483e-06,0.222645,0.732971,6.10255e+06,898.868
0.00856,0.0443843,2.07745e-06,0.22263,0.732984,6.10255e+06,899.25
0.00858,0.0443861,1.42394e-06,0.222626,0.732987,6.10255e+06,899.349
0.0086,0.0443905,4.44084e-07,0.222616,0.732993,6.10255e+06,899.578
0.00862,0.0443927,1.98841e-07,0.222612,0.732995,6.10255e+06,899.687
0.00864,0.0443944,8.71466e-08,0.222609,0.732997,6.10255e+06,899.769
0.00866,0.0443958,3.73844e-08,0.222606,0.732998,6.10255e+06,899.831
0.00868,0.0443968,1.56971e-08,0.222605,0.732999,6.10255e+06,899.877
0.0087,0.0443976,6.45117e-09,0.222603,0.732999,6.10255e+06,899.912
0.00872,0.0443982,2.59503e-09,0.222602,0.733,6.10255e+06,899.937
0.00874,0.0443987,1.02171e-09,0.222602,0.733,6.10255e+06,899.955
0.00876,0.044399,3.93728e-10,0.222601,0.733,6.10255e+06,899.968
0.00878,0.0443993,1.48502e-10,0.222601,0.733,6.10255e+06,899.978
0.0088,0.0443995,5.48147e-11,0.222601,0.733,6.10255e+06,899.985
0.00882,0.0443996,1.97972e-11,0.2226,0.733,6.10255e+06,899.989
0.00884,0.0443997,7.24335e-12,0.2226,0.733,6.10255e+06,899.993
0.00886,0.0443998,2.8688e-12,0.2226,0.733,6.10255e+06,899.995
0.00888,0.0443998,1.68071e-12,0.2226,0.733,6.10255e+06,899.996
0.0089,0.0443999,3.24757e-13,0.2226,0.733,6.10255e+06,899.998
0.00892,0.0443999,1.85642e-13,0.2226,0.733,6.10255e+06,899.998
0.00894,0.0444,3.36864e-14,0.2226,0.733,6.10255e+06,899.999
0.00896,0.0444,1.06009e-14,0.2226,0.733,6.10255e+06,899.999
0.00898,0.0444,3.33849e-15,0.2226,0.733,6.10255e+06,900
0.009,0.0444,1.08219e-15,0.2226,0.733,6.10255e+06,900
0.00902,0.0444,3.6889e-16,0.2226,0.733,6.10255e+06,900
0.00904,0.0444,1.30632e-16,0.2226,0.733,6.10255e+06,900
0.00906,0.0444,4.6897e-17,0.2226,0.733,6.10255e+06,900
0.00908,0.0444,1.68063e-17,0.2226,0.733,6.10255e+06,900
0.0091,0.0444,5.97039e-18,0.2226,0.733,6.10255e+06,900
0.00912,0.0444,2.09667e-18,0.2226,0.733,6.10255e+06,900
0.00914,0.0444,7.27124e-19,0.2226,0.733,6.10255e+06,900
0.00916,0.0444,2.48941e-19,0.2226,0.733,6.10255e+06,900
0.00918,0.0444,8.4132e-20,0.2226,0.733,6.10255e+06,900
0.0092,0.0444,2.80681e-20,0.2226,0.733,6.10255e+06,900
0.00922,0.0444,1.6134e-20,0.2226,0.733,6.10255e+06,900
0.00924,0.0444,3.00601e-21,0.2226,0.733,6.10255e+06,900
0.00926,0.0444,9.65113e-22,0.2226,0.733,6.10255e+06,900
0.00928,0.0444,3.05969e-22,0.2226,0.733,6.10255e+06,900
0.0093,0.0444,9.57898e-23,0.2226,0.733,6.10255e+06,900
0.00932,0.0444,2.96168e-23,0.2226,0.733,6.10255e+06,900
0.00934,0.0444,9.04409e-24,0.2226,0.733,6.10255e+06,900
0.00936,0.0444,2.72793e-24,0.2226,0.733,6.10255e+06,900
0.00938,0.0444,8.12781e-25,0.2226,0.733,6.10255e+06,900
0.0094,0.0444,2.39231e-25,0.2226,0.733,6.10255e+06,900
0.00942,0.0444,6.9566e-26,0.2226,0.733,6.10255e+06,900
0.00944,0.0444,1.99868e-26,0.2226,0.733,6.10255e+06,900
0.00946,0.0444,5.67393e-27,0.2226,0.733,6.10255e+06,900
0.00948,0.0444,1.59166e-27,0.2226,0.733,6.10255e+06,900
0.0095,0.0444,4.4124e-28,0.2226,0.733,6.10255e+06,900
0.00952,0.0444,1.20888e-28,0.2226,0.733,6.10255e+06,900
0.00954,0.0444,3.27346e-29,0.2226,0.733,6.10255e+06,900
0.00956,0.0444,1.69598e-29,0.2226,0.733,6.10255e+06,900
0.00958,0.0444,2.318e-30,0.2226,0.733,6.10255e+06,900
0.0096,0.0444,6.0625e-31,0.2226,0.733,6.10255e+06,900
0.00962,0.0444,1.56754e-31,0.2226,0.733,6.10255e+06,900
0.00964,0.0444,4.00721e-32,0.2226,0.733,6.10255e+06,900
0.00966,0.0444,1.01286e-32,0.2226,0.733,6.10255e+06,900
0.00968,0.0444,2.53142e-33,0.2226,0.733,6.10255e+06,900
0.0097,0.0444,6.2563e-34,0.2226,0.733,6.10255e+06,900
0.00972,0.0444,1.52909e-34,0.2226,0.733,6.10255e+06,900
0.00974,0.0444,3.69608e-35,0.2226,0.733,6.10255e+06,900
0.00976,0.0444,8.83615e-36,0.2226,0.733,6.10255e+06,900
0.00978,0.0444,2.08942e-36,0.2226,0.733,6.10255e+06,900
0.0098,0.0444,4.88717e-37,0.2226,0.733,6.10255e+06,900
0.00982,0.0444,1.13078e-37,0.2226,0.733,6.10255e+06,900
0.00984,0.0444,2.58831e-38,0.2226,0.733,6.10255e+06,900
0.00986,0.0444,5.86121e-39,0.2226,0.733,6.10255e+06,900
0.00988,0.0444,1.31307e-39,0.2226,0.733,6.10255e+06,900
0.0099,0.0444,6.18961e-40,0.2226,0.733,6.10255e+06,900
0.00992,0.0444,6.36785e-41,0.2226,0.733,6.10255e+06,900
0.00994,0.0444,1.36793e-41,0.2226,0.733,6.10255e+06,900
0.00996,0.0444,2.79489e-42,0.2226,0.733,6.10255e+06,900
0.00998,0.0444,4.50222e-43,0.2226,0.733,6.10255e+06,900
0.01,0.0444,1.07941e-43,0.2226,0.733,6.10255e+06,900
