x,NH3,C7H16,O2,N2,p,T
0,1.67982e-322,1,0,1.11022e-16,6.10248e+06,363
2e-05,0,1,0,2.22045e-16,6.10248e+06,363
4e-05,1.63042e-322,1,1.4822e-322,2.22045e-16,6.10248e+06,363
6e-05,1.58101e-322,1,1.33398e-322,2.22045e-16,6.10248e+06,363
8e-05,3.45846e-323,1,0,2.22045e-16,6.10248e+06,363
0.0001,0,1,1.72923e-322,1.11022e-16,6.10248e+06,363
0.00012,0,1,0,2.22045e-16,6.10248e+06,363
0.00014,0,1,0,1.11022e-16,6.10248e+06,363
0.00016,0,1,1.58101e-322,3.33067e-16,6.10248e+06,363
0.00018,0,1,0,5.55112e-16,6.10248e+06,363
0.0002,1.97626e-323,1,0,5.55112e-16,6.10248e+06,363
0.00022,2.47033e-323,1,0,6.66134e-16,6.10248e+06,363
0.00024,0,1,1.5316e-322,4.44089e-16,6.10248e+06,363
0.00026,1.38338e-322,1,0,0,6.10248e+06,363
0.00028,3.95253e-323,1,1.33398e-322,0,6.10248e+06,363
0.0003,1.28457e-322,1,0,3.33067e-16,6.10248e+06,363
0.00032,1.43279e-322,1,0,7.77156e-16,6.10248e+06,363
0.00034,2.47033e-323,1,0,1.33227e-15,6.10248e+06,363
0.00036,1.33398e-322,1,0,1.55431e-15,6.10248e+06,363
0.00038,1.97626e-323,1,0,1.44329e-15,6.10248e+06,363
0.0004,1.67982e-322,1,0,1.55431e-15,6.10248e+06,363
0.00042,0,1,1.33398e-322,1.9984e-15,6.10248e+06,363
0.00044,0,1,1.62054e-321,1.44329e-15,6.10248e+06,363
0.00046,0,1,3.58494e-320,3.33067e-16,6.10248e+06,363
0.00048,0,1,8.20722e-319,4.44089e-16,6.10248e+06,363
0.0005,0,1,1.87232e-317,3.33067e-16,6.10248e+06,363
0.00052,1.38338e-322,1,4.25123e-316,5.55112e-16,6.10248e+06,363
0.00054,0,1,9.60915e-315,3.33067e-16,6.10248e+06,363
0.00056,1.38338e-322,1,2.16214e-313,3.33067e-16,6.10248e+06,363
0.00058,0,1,4.84293e-312,2.22045e-16,6.10248e+06,363
0.0006,0,1,1.07983e-310,3.33067e-16,6.10248e+06,363
0.00062,0,1,2.39672e-309,9.99201e-16,6.10248e+06,363
0.00064,0,1,5.29538e-308,1.22125e-15,6.10248e+06,363
0.00066,0,1,1.16463e-306,1.44329e-15,6.10248e+06,363
0.00068,1.58101e-322,1,2.5497e-305,9.99201e-16,6.10248e+06,363
0.0007,2.47033e-323,1,5.55641e-304,1.11022e-15,6.10248e+06,363
0.00072,0,1,1.20532e-302,1.44329e-15,6.10248e+06,363
0.00074,0,1,2.6026e-301,1.22125e-15,6.10248e+06,363
0.00076,0,1,5.59382e-300,5.55112e-16,6.10248e+06,363
0.00078,0,1,1.19674e-298,0,6.10248e+06,363
0.0008,0,1,2.54849e-297,0,6.10248e+06,363
0.00082,0,1,5.40193e-296,0,6.10248e+06,363
0.00084,0,1,1.13972e-294,3.33067e-16,6.10248e+06,363
0.00086,0,1,2.39344e-293,4.44089e-16,6.10248e+06,363
0.00088,2.47033e-323,1,5.00292e-292,1.11022e-16,6.10248e+06,363
0.0009,0,1,1.04087e-290,2.22045e-16,6.10248e+06,363
0.00092,0,1,2.15543e-289,0,6.10248e+06,363
0.00094,0,1,4.44261e-288,1.11022e-16,6.10248e+06,363
0.00096,0,1,9.11386e-287,2.22045e-16,6.10248e+06,363
0.00098,0,1,1.8609e-285,2.22045e-16,6.10248e+06,363
0.001,0,1,3.7818e-284,1.11022e-16,6.10248e+06,363
0.00102,0,1,7.64933e-283,1.11022e-16,6.10248e+06,363
0.00104,0,1,1.53991e-281,2.22045e-16,6.10248e+06,363
0.00106,0,1,3.08538e-280,8.88178e-16,6.10248e+06,363
0.00108,9.88131e-324,1,6.15264e-279,1.11022e-15,6.10248e+06,363
0.0011,1.23516e-322,1,1.2211e-277,7.77156e-16,6.10248e+06,363
0.00112,1.28457e-322,1,2.41196e-276,7.77156e-16,6.10248e+06,363.001
0.00114,0,1,4.74152e-275,7.77156e-16,6.10248e+06,363.001
0.00116,1.63042e-322,1,9.27664e-274,8.88178e-16,6.10248e+06,363.001
0.00118,6.52167e-322,1,1.80627e-272,1.11022e-15,6.10248e+06,363.001
0.0012,2.79098e-320,1,3.50021e-271,9.99201e-16,6.10248e+06,363.001
0.00122,8.01804e-319,1,6.75021e-270,1.11022e-15,6.10248e+06,363.001
0.00124,2.27712e-317,1,1.29554e-268,1.22125e-15,6.10248e+06,363.001
0.00126,6.43395e-316,1,2.47451e-267,9.99201e-16,6.10248e+06,363.001
0.00128,1.80891e-314,1,4.70358e-266,1.22125e-15,6.10248e+06,363.001
0.0013,5.06057e-313,1,8.89748e-265,9.99201e-16,6.10248e+06,363.001
0.00132,1.40871e-311,1,1.67494e-263,9.99201e-16,6.10248e+06,363.001
0.00134,3.90191e-310,1,3.13777e-262,3.33067e-16,6.10248e+06,363.001
0.00136,1.07537e-308,1,5.84966e-261,6.66134e-16,6.10248e+06,363.001
0.00138,2.94892e-307,1,1.08523e-259,3.33067e-16,6.10248e+06,363.001
0.0014,8.04604e-306,1,2.00351e-258,0,6.10248e+06,363.001
0.00142,2.18429e-304,1,3.68075e-257,0,6.10248e+06,363.001
0.00144,5.89989e-303,1,6.72901e-256,1.11022e-16,6.10248e+06,363.001
0.00146,1.58553e-301,1,1.22415e-254,0,6.10248e+06,363.001
0.00148,4.23932e-300,1,2.21604e-253,0,6.10248e+06,363.001
0.0015,1.12773e-298,1,3.9919e-252,0,6.10248e+06,363.001
0.00152,2.98463e-297,1,7.15546e-251,1.11022e-16,6.10248e+06,363.001
0.00154,7.85872e-296,1,1.27628e-249,0,6.10248e+06,363.001
0.00156,2.05864e-294,1,2.26516e-248,1.11022e-16,6.10248e+06,363.001
0.00158,5.36501e-293,1,4.00033e-247,1.11022e-16,6.10248e+06,363.001
0.0016,1.39096e-291,1,7.02961e-246,0,6.10248e+06,363.001
0.00162,3.58765e-290,1,1.22914e-244,0,6.10248e+06,363.001
0.00164,9.20549e-289,1,2.13845e-243,0,6.10248e+06,363.001
0.00166,2.34975e-287,1,3.70188e-242,0,6.10248e+06,363.001
0.00168,5.96658e-286,1,6.37629e-241,0,6.10248e+06,363.001
0.0017,1.50714e-284,1,1.09278e-239,3.33067e-16,6.10248e+06,363.001
0.00172,3.78705e-283,1,1.8634e-238,2.22045e-16,6.10248e+06,363.001
0.00174,9.46586e-282,1,3.16148e-237,3.33067e-16,6.10248e+06,363.001
0.00176,2.35355e-280,1,5.33678e-236,0,6.10248e+06,363.001
0.00178,5.82086e-279,1,8.96331e-235,0,6.10248e+06,363.001
0.0018,1.432e-277,1,1.4978e-233,4.44089e-16,6.10248e+06,363.001
0.00182,3.50417e-276,1,2.49016e-232,9.99201e-16,6.10248e+06,363.001
0.00184,8.52917e-275,1,4.11899e-231,8.88178e-16,6.10248e+06,363.001
0.00186,2.06491e-273,1,6.77852e-230,7.77156e-16,6.10248e+06,363.001
0.00188,4.97238e-272,1,1.10983e-228,9.99201e-16,6.10248e+06,363.001
0.0019,1.19093e-270,1,1.80782e-227,5.55112e-16,6.10248e+06,363.001
0.00192,2.83703e-269,1,2.92968e-226,5.55112e-16,6.10248e+06,363.001
0.00194,6.72185e-268,1,4.72334e-225,9.99201e-16,6.10248e+06,363.001
0.00196,1.584e-266,1,7.57598e-224,6.66134e-16,6.10248e+06,363.001
0.00198,3.7124e-265,1,1.20888e-222,8.88178e-16,6.10248e+06,363.001
0.002,8.65331e-264,1,1.91902e-221,6.66134e-16,6.10248e+06,363.001
0.00202,2.006e-262,1,3.03055e-220,1.11022e-16,6.10248e+06,363.001
0.00204,4.62483e-261,1,4.76108e-219,0,6.10248e+06,363.001
0.00206,2.21606e-260,1,1.88343e-218,0,6.10248e+06,363.001
0.00208,2.41791e-258,1,1.15685e-216,4.44089e-16,6.10248e+06,363.001
0.0021,5.48288e-257,1,1.7892e-215,1.11022e-16,6.10248e+06,363.001
0.00212,1.23642e-255,1,2.75272e-214,2.22045e-16,6.10248e+06,363.001
0.00214,2.77269e-254,1,4.21291e-213,1.11022e-16,6.10248e+06,363.001
0.00216,6.1832e-253,1,6.4138e-212,0,6.10248e+06,363.001
0.00218,1.37117e-251,1,9.71309e-211,0,6.10248e+06,363.001
0.0022,3.02366e-250,1,1.4632e-209,2.22045e-16,6.10248e+06,363.001
0.00222,6.63021e-249,1,2.19253e-208,1.11022e-16,6.10248e+06,363.001
0.00224,1.44567e-247,1,3.26801e-207,0,6.10248e+06,363.001
0.00226,3.13438e-246,1,4.84518e-206,0,6.10248e+06,363.001
0.00228,6.75721e-245,1,7.14529e-205,2.22045e-16,6.10248e+06,363.001
0.0023,1.44847e-243,1,1.04811e-203,1.11022e-16,6.10248e+06,363.001
0.00232,3.08726e-242,1,1.52922e-202,0,6.10248e+06,363.001
0.00234,6.54257e-241,1,2.21922e-201,0,6.10248e+06,363.001
0.00236,1.37857e-239,1,3.20328e-200,4.44089e-16,6.10248e+06,363.001
0.00238,2.88809e-238,1,4.59883e-199,2.22045e-16,6.10248e+06,363.001
0.0024,6.01565e-237,1,6.56679e-198,2.22045e-16,6.10248e+06,363.002
0.00242,1.24578e-235,1,9.32625e-197,0,6.10248e+06,363.002
0.00244,2.56493e-234,1,1.31736e-195,1.11022e-16,6.10248e+06,363.002
0.00246,5.25027e-233,1,1.85071e-194,2.22045e-16,6.10248e+06,363.002
0.00248,1.06844e-231,1,2.58586e-193,4.44089e-16,6.10248e+06,363.002
0.0025,2.16162e-230,1,3.59334e-192,2.22045e-16,6.10248e+06,363.002
0.00252,4.34766e-229,1,4.96608e-191,3.33067e-16,6.10248e+06,363.002
0.00254,8.69309e-228,1,6.82568e-190,7.77156e-16,6.10248e+06,363.002
0.00256,1.72794e-226,1,9.33015e-189,1.11022e-16,6.10248e+06,363.002
0.00258,3.41437e-225,1,1.26834e-187,0,6.10248e+06,363.002
0.0026,6.70678e-224,1,1.71469e-186,1.11022e-16,6.10248e+06,363.002
0.00262,1.30958e-222,1,2.3053e-185,0,6.10248e+06,363.002
0.00264,2.54188e-221,1,3.08219e-184,0,6.10248e+06,363.002
0.00266,4.9043e-220,1,4.09803e-183,3.33067e-16,6.10248e+06,363.002
0.00268,9.40572e-219,1,5.41837e-182,2.22045e-16,6.10248e+06,363.002
0.0027,1.79304e-217,1,7.12416e-181,0,6.10248e+06,363.002
0.00272,3.39756e-216,1,9.31464e-180,3.33067e-16,6.10248e+06,363.002
0.00274,6.39903e-215,1,1.21104e-178,1.11022e-16,6.10248e+06,363.002
0.00276,1.19791e-213,1,1.56569e-177,0,6.10248e+06,363.002
0.00278,2.22888e-212,1,2.01282e-176,2.22045e-16,6.10248e+06,363.002
0.0028,4.12191e-211,1,2.57303e-175,0,6.10248e+06,363.002
0.00282,7.57619e-210,1,3.27058e-174,0,6.10248e+06,363.002
0.00284,1.384e-208,1,4.13366e-173,0,6.10248e+06,363.002
0.00286,2.51273e-207,1,5.19483e-172,0,6.10248e+06,363.002
0.00288,4.53392e-206,1,6.49124e-171,0,6.10248e+06,363.002
0.0029,8.13041e-205,1,8.06489e-170,0,6.10248e+06,363.002
0.00292,1.44895e-203,1,9.96269e-169,0,6.10248e+06,363.002
0.00294,2.5662e-202,1,1.22365e-167,0,6.10248e+06,363.002
0.00296,4.51662e-201,1,1.49428e-166,0,6.10248e+06,363.002
0.00298,7.89983e-200,1,1.81426e-165,1.11022e-16,6.10248e+06,363.002
0.003,1.37307e-198,1,2.19002e-164,0,6.10248e+06,363.002
0.00302,2.37156e-197,1,2.62829e-163,0,6.10248e+06,363.002
0.00304,4.07035e-196,1,3.13596e-162,1.11022e-16,6.10248e+06,363.002
0.00306,6.94191e-195,1,3.71991e-161,8.88178e-16,6.10248e+06,363.002
0.00308,1.17643e-193,1,4.38685e-160,1.11022e-15,6.10248e+06,363.002
0.0031,1.98102e-192,1,5.1431e-159,7.77156e-16,6.10248e+06,363.002
0.00312,3.31464e-191,1,5.99435e-158,6.66134e-16,6.10248e+06,363.002
0.00314,5.51065e-190,1,6.94543e-157,7.77156e-16,6.10248e+06,363.003
0.00316,9.10289e-189,1,7.99996e-156,8.88178e-16,6.10248e+06,363.003
0.00318,1.49403e-187,1,9.16015e-155,4.44089e-16,6.10248e+06,363.003
0.0032,2.4363e-186,1,1.04265e-153,1.11022e-16,6.10248e+06,363.003
0.00322,3.94722e-185,1,1.17973e-152,5.55112e-16,6.10248e+06,363.003
0.00324,6.35375e-184,1,1.32689e-151,3.33067e-16,6.10248e+06,363.003
0.00326,1.01611e-182,1,1.4835e-150,5.55112e-16,6.10248e+06,363.003
0.00328,1.61441e-181,1,1.64866e-149,1.33227e-15,6.10248e+06,363.003
0.0033,2.54824e-180,1,1.82122e-148,1.11022e-15,6.10248e+06,363.003
0.00332,3.9959e-179,1,1.99973e-147,5.55112e-16,6.10248e+06,363.003
0.00334,6.22483e-178,1,2.18249e-146,4.44089e-16,6.10248e+06,363.003
0.00336,9.63321e-177,1,2.36754e-145,4.44089e-16,6.10248e+06,363.003
0.00338,1.48094e-175,1,2.5527e-144,4.44089e-16,6.10248e+06,363.003
0.0034,2.26162e-174,1,2.73561e-143,5.55112e-16,6.10248e+06,363.003
0.00342,3.43089e-173,1,2.91375e-142,5.55112e-16,6.10248e+06,363.003
0.00344,5.17002e-172,1,3.08451e-141,3.33067e-16,6.10248e+06,363.003
0.00346,7.73872e-171,1,3.24526e-140,1.11022e-15,6.10248e+06,363.003
0.00348,1.15061e-169,1,3.3934e-139,1.33227e-15,6.10248e+06,363.003
0.0035,1.69926e-168,1,3.52642e-138,1.33227e-15,6.10248e+06,363.003
0.00352,2.49263e-167,1,3.64202e-137,5.55112e-16,6.10248e+06,363.003
0.00354,3.63172e-166,1,3.73809e-136,3.33067e-16,6.10248e+06,363.003
0.00356,5.25553e-165,1,3.81284e-135,3.33067e-16,6.10248e+06,363.003
0.00358,7.55374e-164,1,3.86486e-134,3.33067e-16,6.10248e+06,363.003
0.0036,1.0783e-162,1,3.8931e-133,2.22045e-16,6.10248e+06,363.003
0.00362,1.52877e-161,1,3.89697e-132,8.88178e-16,6.10248e+06,363.003
0.00364,2.15259e-160,1,3.87634e-131,5.55112e-16,6.10248e+06,363.003
0.00366,3.01014e-159,1,3.83151e-130,3.33067e-16,6.10248e+06,363.004
0.00368,4.18034e-158,1,3.76326e-129,0,6.10248e+06,363.004
0.0037,5.76538e-157,1,3.6728e-128,3.33067e-16,6.10248e+06,363.004
0.00372,7.89636e-156,1,3.56173e-127,4.44089e-16,6.10248e+06,363.004
0.00374,1.07399e-154,1,3.43201e-126,5.55112e-16,6.10248e+06,363.004
0.00376,1.45057e-153,1,3.28587e-125,1.11022e-16,6.10248e+06,363.004
0.00378,1.94552e-152,1,3.12578e-124,0,6.10248e+06,363.004
0.0038,2.59108e-151,1,2.95437e-123,3.33067e-16,6.10248e+06,363.004
0.00382,3.42663e-150,1,2.77436e-122,5.55112e-16,6.10248e+06,363.004
0.00384,4.49971e-149,1,2.58846e-121,5.55112e-16,6.10248e+06,363.004
0.00386,5.86714e-148,1,2.39936e-120,1.11022e-16,6.10248e+06,363.004
0.00388,7.59599e-147,1,2.2096e-119,8.88178e-16,6.10248e+06,363.004
0.0039,9.76446e-146,1,2.02157e-118,4.44089e-16,6.10248e+06,363.004
0.00392,1.24627e-144,1,1.83744e-117,2.22045e-16,6.10248e+06,363.004
0.00394,1.5793e-143,1,1.65911e-116,6.66134e-16,6.10248e+06,363.004
0.00396,1.987e-142,1,1.48823e-115,6.66134e-16,6.10248e+06,363.004
0.00398,2.48202e-141,1,1.32614e-114,1.55431e-15,6.10248e+06,363.004
0.004,3.07806e-140,1,1.17387e-113,1.9984e-15,6.10248e+06,363.004
0.00402,3.78971e-139,1,1.03218e-112,1.9984e-15,6.10248e+06,363.004
0.00404,4.63215e-138,1,9.01547e-112,1.77636e-15,6.10248e+06,363.005
0.00406,5.62081e-137,1,7.82181e-111,1.33227e-15,6.10248e+06,363.005
0.00408,6.7709e-136,1,6.7407e-110,1.55431e-15,6.10248e+06,363.005
0.0041,8.09685e-135,1,5.76993e-109,7.77156e-16,6.10248e+06,363.005
0.00412,2.79227e-134,1,1.68384e-108,1.11022e-15,6.10248e+06,363.005
0.00414,1.13264e-132,1,4.1426e-107,1.55431e-15,6.10248e+06,363.005
0.00416,1.32489e-131,1,3.47449e-106,1.77636e-15,6.10248e+06,363.005
0.00418,1.53836e-130,1,2.89428e-105,9.99201e-16,6.10248e+06,363.005
0.0042,1.77304e-129,1,2.39448e-104,4.44089e-16,6.10248e+06,363.005
0.00422,2.02839e-128,1,1.96741e-103,1.22125e-15,6.10248e+06,363.005
0.00424,2.30329e-127,1,1.6054e-102,5.55112e-16,6.10248e+06,363.005
0.00426,2.59599e-126,1,1.30096e-101,6.66134e-16,6.10248e+06,363.005
0.00428,2.90406e-125,1,1.04696e-100,2.22045e-16,6.10248e+06,363.005
0.0043,3.22441e-124,1,8.36695e-100,2.22045e-16,6.10248e+06,363.005
0.00432,3.55325e-123,1,6.64002e-99,4.44089e-16,6.10248e+06,363.005
0.00434,3.88622e-122,1,5.23269e-98,9.99201e-16,6.10248e+06,363.006
0.00436,4.21838e-121,1,4.09473e-97,1.22125e-15,6.10248e+06,363.006
0.00438,4.54435e-120,1,3.18169e-96,7.77156e-16,6.10248e+06,363.006
0.0044,4.85848e-119,1,2.4548e-95,7.77156e-16,6.10248e+06,363.006
0.00442,5.15491e-118,1,1.88055e-94,6.66134e-16,6.10248e+06,363.006
0.00444,5.42786e-117,1,1.4304e-93,3.33067e-16,6.10248e+06,363.006
0.00446,1.75625e-116,1,3.9344e-93,3.33067e-16,6.10248e+06,363.006
0.00448,5.88125e-115,1,8.09968e-92,1.22125e-15,6.10248e+06,363.006
0.0045,6.05186e-114,1,6.02955e-91,1.44329e-15,6.10248e+06,363.006
0.00452,6.17964e-113,1,4.45617e-90,1.33227e-15,6.10248e+06,363.006
0.00454,6.26162e-112,1,3.26955e-89,7.77156e-16,6.10248e+06,363.006
0.00456,6.29581e-111,1,2.38151e-88,1.55431e-15,6.10248e+06,363.006
0.00458,6.28131e-110,1,1.72204e-87,1.33227e-15,6.10248e+06,363.007
0.0046,6.21837e-109,1,1.23609e-86,1.11022e-15,6.10248e+06,363.007
0.00462,6.10834e-108,1,8.80771e-86,9.99201e-16,6.10248e+06,363.007
0.00464,5.95365e-107,1,6.22972e-85,1.11022e-15,6.10248e+06,363.007
0.00466,5.75772e-106,1,4.37378e-84,1.66533e-15,6.10248e+06,363.007
0.00468,5.52482e-105,1,3.048e-83,1.77636e-15,6.10248e+06,363.007
0.0047,5.25992e-104,1,2.1083e-82,9.99201e-16,6.10248e+06,363.007
0.00472,4.96853e-103,1,1.44743e-81,4.44089e-16,6.10248e+06,363.007
0.00474,4.65648e-102,1,9.86272e-81,7.77156e-16,6.10248e+06,363.007
0.00476,4.32976e-101,1,6.66991e-80,9.99201e-16,6.10248e+06,363.007
0.00478,3.99428e-100,1,4.47667e-79,2.22045e-16,6.10248e+06,363.007
0.0048,3.65575e-99,1,2.98187e-78,2.22045e-16,6.10248e+06,363.008
0.00482,3.3195e-98,1,1.97111e-77,2.22045e-16,6.10248e+06,363.008
0.00484,2.99034e-97,1,1.29302e-76,9.99201e-16,6.10248e+06,363.008
0.00486,2.67248e-96,1,8.41715e-76,6.66134e-16,6.10248e+06,363.008
0.00488,2.36947e-95,1,5.43717e-75,1.11022e-16,6.10248e+06,363.008
0.0049,2.08413e-94,1,3.48512e-74,3.33067e-16,6.10248e+06,363.008
0.00492,1.81856e-93,1,2.2166e-73,0,6.10248e+06,363.008
0.00494,1.5742e-92,1,1.39884e-72,0,6.10248e+06,363.008
0.00496,1.3518e-91,1,8.75885e-72,1.11022e-16,6.10248e+06,363.008
0.00498,1.15155e-90,1,5.44141e-71,4.44089e-16,6.10248e+06,363.009
0.005,9.73114e-90,1,3.35388e-70,1.22125e-15,6.10248e+06,363.009
0.00502,8.15745e-89,1,2.05089e-69,1.88738e-15,6.10248e+06,363.009
0.00504,6.78344e-88,1,1.24418e-68,9.99201e-16,6.10248e+06,363.009
0.00506,5.59558e-87,1,7.48778e-68,7.77156e-16,6.10248e+06,363.009
0.00508,4.57865e-86,1,4.47036e-67,6.66134e-16,6.10248e+06,363.009
0.0051,3.71639e-85,1,2.6475e-66,1.33227e-15,6.10248e+06,363.009
0.00512,1.05559e-84,1,6.42342e-66,5.55112e-16,6.10248e+06,363.009
0.00514,2.38975e-83,1,9.06309e-65,8.88178e-16,6.10248e+06,363.01
0.00516,1.89318e-82,1,5.23837e-64,9.99201e-16,6.10248e+06,363.01
0.00518,1.48768e-81,1,3.00306e-63,4.44089e-16,6.10248e+06,363.01
0.0052,1.15958e-80,1,1.70751e-62,8.88178e-16,6.10248e+06,363.01
0.00522,8.96531e-80,1,9.62898e-62,3.33067e-16,6.10248e+06,363.01
0.00524,6.87537e-79,1,5.38519e-61,0,6.10248e+06,363.01
0.00526,5.22986e-78,1,2.98682e-60,0,6.10248e+06,363.01
0.00528,3.94589e-77,1,1.64282e-59,5.55112e-16,6.10248e+06,363.011
0.0053,2.95296e-76,1,8.96046e-59,3.33067e-16,6.10248e+06,363.011
0.00532,2.19191e-75,1,4.84632e-58,1.55431e-15,6.10248e+06,363.011
0.00534,1.61375e-74,1,2.59909e-57,1.66533e-15,6.10248e+06,363.011
0.00536,1.1784e-73,1,1.38211e-56,5.55112e-16,6.10248e+06,363.011
0.00538,8.53479e-73,1,7.28713e-56,9.99201e-16,6.10248e+06,363.011
0.0054,6.13094e-72,1,3.80936e-55,5.55112e-16,6.10248e+06,363.012
0.00542,4.36809e-71,1,1.97428e-54,4.44089e-16,6.10248e+06,363.012
0.00544,3.0866e-70,1,1.01441e-53,5.55112e-16,6.10248e+06,363.012
0.00546,2.16316e-69,1,5.16715e-53,2.22045e-16,6.10248e+06,363.012
0.00548,1.50352e-68,1,2.60916e-52,0,6.10248e+06,363.012
0.0055,1.03642e-67,1,1.30601e-51,1.11022e-16,6.10248e+06,363.012
0.00552,7.08532e-67,1,6.47999e-51,2.22045e-16,6.10248e+06,363.013
0.00554,4.80366e-66,1,3.18687e-50,3.33067e-16,6.10248e+06,363.013
0.00556,3.22972e-65,1,1.55346e-49,4.44089e-16,6.10248e+06,363.013
0.00558,2.15341e-64,1,7.50523e-49,6.66134e-16,6.10248e+06,363.013
0.0056,1.4238e-63,1,3.59367e-48,9.99201e-16,6.10248e+06,363.013
0.00562,9.33505e-63,1,1.70532e-47,1.44329e-15,6.10248e+06,363.014
0.00564,6.06903e-62,1,8.01951e-47,2.33147e-15,6.10248e+06,363.014
0.00566,3.91239e-61,1,3.7372e-46,1.44329e-15,6.10248e+06,363.014
0.00568,2.50076e-60,1,1.72577e-45,1.77636e-15,6.10248e+06,363.014
0.0057,1.58485e-59,1,7.89657e-45,2.10942e-15,6.10248e+06,363.014
0.00572,9.95816e-59,1,3.5801e-44,2.10942e-15,6.10248e+06,363.015
0.00574,6.2033e-58,1,1.60817e-43,1.22125e-15,6.10248e+06,363.015
0.00576,3.8309e-57,1,7.15701e-43,1.9984e-15,6.10248e+06,363.015
0.00578,2.34526e-56,1,3.15554e-42,2.55351e-15,6.10248e+06,363.015
0.0058,1.42322e-55,1,1.37828e-41,1.55431e-15,6.10248e+06,363.016
0.00582,8.56088e-55,1,5.96355e-41,1.9984e-15,6.10248e+06,363.016
0.00584,5.10397e-54,1,2.55595e-40,1.55431e-15,6.10248e+06,363.016
0.00586,3.01588e-53,1,1.08508e-39,1.9984e-15,6.10248e+06,363.016
0.00588,1.76607e-52,1,4.56259e-39,1.66533e-15,6.10248e+06,363.017
0.0059,1.02485e-51,1,1.90011e-38,1.33227e-15,6.10248e+06,363.017
0.00592,5.89309e-51,1,7.83686e-38,1.11022e-15,6.10248e+06,363.017
0.00594,3.35756e-50,1,3.20095e-37,8.88178e-16,6.10248e+06,363.017
0.00596,1.89527e-49,1,1.29469e-36,1.22125e-15,6.10248e+06,363.018
0.00598,1.05986e-48,1,5.18539e-36,4.44089e-16,6.10248e+06,363.018
0.006,5.87117e-48,1,2.05636e-35,5.55112e-16,6.10248e+06,363.018
0.00602,3.22152e-47,1,8.07408e-35,5.55112e-16,6.10248e+06,363.018
0.00604,1.75074e-46,1,3.13862e-34,0,6.10248e+06,363.019
0.00606,9.42257e-46,1,1.20784e-33,7.77156e-16,6.10248e+06,363.019
0.00608,5.02184e-45,1,4.60125e-33,1.77636e-15,6.10248e+06,363.019
0.0061,2.65011e-44,1,1.73504e-32,1.66533e-15,6.10248e+06,363.02
0.00612,1.38461e-43,1,6.47561e-32,1.33227e-15,6.10248e+06,363.02
0.00614,7.16172e-43,1,2.39197e-31,5.55112e-16,6.10248e+06,363.02
0.00616,3.6668e-42,1,8.74381e-31,6.66134e-16,6.10248e+06,363.02
0.00618,1.8582e-41,1,3.16286e-30,0,6.10248e+06,363.021
0.0062,9.31945e-41,1,1.13202e-29,0,6.10248e+06,363.021
0.00622,4.62524e-40,1,4.00854e-29,0,6.10248e+06,363.021
0.00624,2.27132e-39,1,1.4042e-28,0,6.10248e+06,363.022
0.00626,1.10351e-38,1,4.86562e-28,0,6.10248e+06,363.022
0.00628,5.30371e-38,1,1.66749e-27,0,6.10248e+06,363.022
0.0063,2.52139e-37,1,5.65131e-27,0,6.10248e+06,363.023
0.00632,1.18552e-36,1,1.89383e-26,0,6.10248e+06,363.023
0.00634,5.51231e-36,1,6.27442e-26,7.77156e-16,6.10248e+06,363.023
0.00636,2.53435e-35,1,2.05486e-25,1.55431e-15,6.10248e+06,363.024
0.00638,1.15201e-34,1,6.65113e-25,7.77156e-16,6.10248e+06,363.024
0.0064,5.17668e-34,1,2.12732e-24,8.88178e-16,6.10248e+06,363.024
0.00642,2.29931e-33,1,6.72222e-24,3.33067e-16,6.10248e+06,363.025
0.00644,1.00935e-32,1,2.09818e-23,7.77156e-16,6.10248e+06,363.025
0.00646,4.37857e-32,1,6.46736e-23,1.55431e-15,6.10248e+06,363.026
0.00648,1.87678e-31,1,1.96816e-22,9.99201e-16,6.10248e+06,363.026
0.0065,7.94746e-31,1,5.91193e-22,1.22125e-15,6.10248e+06,363.026
0.00652,3.32447e-30,1,1.75232e-21,1.55431e-15,6.10248e+06,363.027
0.00654,1.37354e-29,1,5.12367e-21,1.11022e-15,6.10248e+06,363.027
0.00656,5.60433e-29,1,1.47739e-20,1.11022e-16,6.10248e+06,363.027
0.00658,2.25795e-28,1,4.19958e-20,3.33067e-16,6.10248e+06,363.028
0.0066,8.9816e-28,1,1.17639e-19,1.55431e-15,6.10248e+06,363.028
0.00662,3.52682e-27,1,3.2461e-19,5.55112e-16,6.10248e+06,363.029
0.00664,1.36692e-26,1,8.81968e-19,1.11022e-15,6.10248e+06,363.029
0.00666,5.22842e-26,1,2.35846e-18,6.66134e-16,6.10248e+06,363.03
0.00668,1.97335e-25,1,6.20405e-18,2.22045e-16,6.10248e+06,363.03
0.0067,7.34826e-25,1,1.60461e-17,5.55112e-16,6.10248e+06,363.03
0.00672,2.69927e-24,1,4.07816e-17,7.77156e-16,6.10248e+06,363.031
0.00674,9.77967e-24,1,1.01788e-16,2.22045e-16,6.10248e+06,363.031
0.00676,3.49426e-23,1,2.49337e-16,0,6.10248e+06,363.032
0.00678,1.23104e-22,1,5.98989e-16,8.88178e-16,6.10248e+06,363.032
0.0068,4.27575e-22,1,1.41013e-15,6.10623e-15,6.10248e+06,363.033
0.00682,1.46387e-21,1,3.25038e-15,1.88738e-14,6.10248e+06,363.033
0.00684,4.93945e-21,1,7.32886e-15,4.76286e-14,6.10248e+06,363.034
0.00686,1.64236e-20,1,1.61477e-14,1.07248e-13,6.10248e+06,363.034
0.00688,5.38034e-20,1,3.47251e-14,2.30926e-13,6.10248e+06,363.034
0.0069,1.73634e-19,1,7.27884e-14,4.77174e-13,6.10248e+06,363.035
0.00692,5.51951e-19,1,1.48497e-13,9.579e-13,6.10248e+06,363.035
0.00694,1.72827e-18,1,2.94368e-13,1.86828e-12,6.10248e+06,363.036
0.00696,5.3325e-18,1,5.66031e-13,3.53817e-12,6.10248e+06,363.036
0.00698,1.6235e-17,1,1.05432e-12,6.50036e-12,6.10248e+06,363.037
0.007,4.89754e-17,1,1.90254e-12,1.15969e-11,6.10248e+06,363.037
0.00702,1.48052e-16,1,3.3416e-12,2.0201e-11,6.10248e+06,363.038
0.00704,4.60486e-16,1,5.80171e-12,3.48886e-11,6.10248e+06,363.039
0.00706,1.53142e-15,1,1.02607e-11,6.15034e-11,6.10248e+06,363.039
0.00708,5.45828e-15,1,1.8937e-11,1.1322e-10,6.10248e+06,363.04
0.0071,1.99083e-14,1,3.64417e-11,2.17217e-10,6.10248e+06,363.041
0.00712,7.17594e-14,1,7.24891e-11,4.30278e-10,6.10248e+06,363.043
0.00714,2.52354e-13,1,1.48066e-10,8.7381e-10,6.10248e+06,363.045
0.00716,8.62579e-13,1,3.08948e-10,1.80936e-09,6.10248e+06,363.049
0.00718,2.86268e-12,1,6.55466e-10,3.80192e-09,6.10248e+06,363.055
0.0072,9.22103e-12,1,1.40794e-09,8.07203e-09,6.10248e+06,363.065
0.00722,2.88235e-11,1,3.04981e-09,1.72494e-08,6.10248e+06,363.08
0.00724,8.74235e-11,1,6.63813e-09,3.69704e-08,6.10248e+06,363.105
0.00726,2.57264e-10,1,1.44702e-08,7.92234e-08,6.10248e+06,363.144
0.00728,7.34437e-10,1,3.14954e-08,1.69252e-07,6.10248e+06,363.205
0.0073,2.03376e-09,1,6.82585e-08,3.59554e-07,6.10248e+06,363.3
0.00732,5.46196e-09,0.999999,1.4692e-07,7.57729e-07,6.10248e+06,363.447
0.00734,1.4224e-08,0.999998,3.13306e-07,1.58062e-06,6.10248e+06,363.67
0.00736,3.59098e-08,0.999996,6.60442e-07,3.25702e-06,6.10248e+06,364.003
0.00738,8.786e-08,0.999992,1.37324e-06,6.61698e-06,6.10248e+06,364.497
0.0074,2.0825e-07,0.999984,2.81073e-06,1.32299e-05,6.10248e+06,365.215
0.00742,4.77947e-07,0.999968,5.65195e-06,2.59873e-05,6.10248e+06,366.245
0.00744,1.06147e-06,0.999938,1.11446e-05,5.00658e-05,6.10248e+06,367.697
0.00746,2.27954e-06,0.999882,2.15087e-05,9.44459e-05,6.10248e+06,369.708
0.00748,4.7297e-06,0.999781,4.05579e-05,0.000174177,6.10248e+06,372.441
0.0075,9.47267e-06,0.999602,7.45935e-05,0.000313541,6.10248e+06,376.079
0.00752,1.82965e-05,0.999298,0.000133598,0.000550129,6.10248e+06,380.815
0.00754,3.40551e-05,0.998794,0.000232687,0.000939616,6.10248e+06,386.839
0.00756,6.10487e-05,0.997985,0.000393676,0.0015607,6.10248e+06,394.314
0.00758,0.000105387,0.996729,0.000646551,0.0025194,6.10248e+06,403.367
0.0076,0.00017525,0.994842,0.00103057,0.00395195,6.10248e+06,414.066
0.00762,0.000280986,0.992099,0.00159483,0.00602566,6.10248e+06,426.424
0.00764,0.000435011,0.988229,0.00239818,0.00893782,6.10248e+06,440.401
0.00766,0.000651539,0.982926,0.00350878,0.0129133,6.10248e+06,455.917
0.00768,0.000946241,0.975849,0.00500337,0.0182013,6.10248e+06,472.871
0.0077,0.0013359,0.966624,0.00696661,0.0250731,6.10248e+06,491.151
0.00772,0.00183815,0.954851,0.00949067,0.0338198,6.10248e+06,510.648
0.00774,0.0024713,0.940104,0.0126748,0.0447502,6.10248e+06,531.255
0.00776,0.00325425,0.921931,0.016625,0.0581899,6.10248e+06,552.867
0.00778,0.00420635,0.899864,0.021453,0.0744766,6.10248e+06,575.371
0.0078,0.00534709,0.873427,0.0272738,0.0939523,6.10248e+06,598.634
0.00782,0.00669543,0.842155,0.034201,0.116948,6.10248e+06,622.484
0.00784,0.00826854,0.805631,0.0423391,0.143761,6.10248e+06,646.698
0.00786,0.00914379,0.785293,0.0468893,0.158674,6.10248e+06,658.854
0.00788,0.0121359,0.71571,0.0625403,0.209613,6.10248e+06,694.987
0.0079,0.0132552,0.689671,0.0684245,0.228649,6.10248e+06,706.749
0.00792,0.0169531,0.60366,0.0879409,0.291446,6.10248e+06,740.393
0.00794,0.0196586,0.540799,0.102261,0.337282,6.10248e+06,760.894
0.00796,0.0224917,0.47508,0.117261,0.385167,6.10248e+06,779.407
0.00798,0.0253748,0.408359,0.132501,0.433765,6.10248e+06,795.704
0.008,0.0282165,0.342805,0.147463,0.481515,6.10248e+06,809.735
0.00802,0.0309223,0.280653,0.161615,0.526809,6.10248e+06,821.634
0.00804,0.0334077,0.223896,0.174486,0.56821,6.10248e+06,831.672
0.00806,0.0356094,0.17401,0.185732,0.60465,6.10248e+06,840.193
0.00808,0.037493,0.131786,0.195176,0.635546,6.10248e+06,847.537
0.0081,0.039053,0.0973223,0.202809,0.660816,6.10248e+06,853.989
0.00812,0.040308,0.0701408,0.208757,0.680795,6.10248e+06,859.753
0.00814,0.0412924,0.0493775,0.213233,0.696097,6.10248e+06,864.961
0.00816,0.0420486,0.033982,0.216491,0.707478,6.10248e+06,869.686
0.00818,0.0426199,0.0228792,0.218786,0.715715,6.10248e+06,873.963
0.0082,0.0428491,0.0186227,0.219646,0.718883,6.10248e+06,875.94
0.00822,0.0433633,0.00973129,0.221375,0.72553,6.10248e+06,881.242
0.00824,0.0434894,0.00775745,0.221738,0.727015,6.10248e+06,882.805
0.00826,0.0437727,0.00381153,0.222411,0.730005,6.10248e+06,886.915
0.00828,0.0439039,0.00231441,0.222629,0.731153,6.10248e+06,889.201
0.0083,0.0440038,0.00137798,0.222737,0.731881,6.10248e+06,891.155
0.00832,0.0440802,0.000815472,0.222779,0.732326,6.10248e+06,892.796
0.00834,0.0441396,0.000484571,0.222783,0.732593,6.10248e+06,894.156
0.00836,0.0441888,0.000271065,0.222772,0.732768,6.10248e+06,895.318
0.00838,0.0442286,0.000148484,0.22275,0.732873,6.10248e+06,896.278
0.0084,0.0442609,7.97028e-05,0.222726,0.732933,6.10248e+06,897.062
0.00842,0.0442873,4.19152e-05,0.222703,0.732968,6.10248e+06,897.698
0.00844,0.0443091,2.15945e-05,0.222682,0.732987,6.10248e+06,898.209
0.00846,0.0443269,1.08983e-05,0.222664,0.732998,6.10248e+06,898.616
0.00848,0.0443415,5.38966e-06,0.22265,0.733003,6.10248e+06,898.939
0.0085,0.0443535,2.61673e-06,0.222638,0.733006,6.10248e+06,899.192
0.00852,0.044363,1.31702e-06,0.222629,0.733007,6.10248e+06,899.384
0.00854,0.0443669,9.4854e-07,0.222625,0.733007,6.10248e+06,899.462
0.00856,0.0443771,2.91374e-07,0.222616,0.733006,6.10248e+06,899.654
0.00858,0.0443798,1.94505e-07,0.222614,0.733006,6.10248e+06,899.702
0.0086,0.0443863,5.6118e-08,0.222609,0.733005,6.10248e+06,899.813
0.00862,0.0443895,2.38918e-08,0.222606,0.733004,6.10248e+06,899.864
0.00864,0.044392,9.96387e-09,0.222605,0.733003,6.10248e+06,899.902
0.00866,0.0443939,4.06902e-09,0.222603,0.733003,6.10248e+06,899.93
0.00868,0.0443954,1.62694e-09,0.222602,0.733002,6.10248e+06,899.95
0.0087,0.0443966,6.36894e-10,0.222602,0.733002,6.10248e+06,899.965
0.00872,0.0443974,2.44112e-10,0.222601,0.733001,6.10248e+06,899.976
0.00874,0.0443981,9.16121e-11,0.222601,0.733001,6.10248e+06,899.984
0.00876,0.0443986,3.36643e-11,0.222601,0.733001,6.10248e+06,899.989
0.00878,0.044399,1.21128e-11,0.2226,0.733001,6.10248e+06,899.993
0.0088,0.0443993,4.26769e-12,0.2226,0.733,6.10248e+06,899.996
0.00882,0.0443995,1.47241e-12,0.2226,0.733,6.10248e+06,899.998
0.00884,0.0443996,4.97512e-13,0.2226,0.733,6.10248e+06,899.999
0.00886,0.0443997,1.64688e-13,0.2226,0.733,6.10248e+06,900
0.00888,0.0443998,9.405e-14,0.2226,0.733,6.10248e+06,900
0.0089,0.0443999,1.70726e-14,0.2226,0.733,6.10248e+06,900.001
0.00892,0.0443999,9.61243e-15,0.2226,0.733,6.10248e+06,900.001
0.00894,0.0443999,1.74151e-15,0.2226,0.733,6.10248e+06,900.001
0.00896,0.0444,5.84227e-16,0.2226,0.733,6.10248e+06,900.001
0.00898,0.0444,2.04819e-16,0.2226,0.733,6.10248e+06,900.001
0.009,0.0444,7.41018e-17,0.2226,0.733,6.10248e+06,900.001
0.00902,0.0444,2.67855e-17,0.2226,0.733,6.10248e+06,900.001
0.00904,0.0444,9.55362e-18,0.2226,0.733,6.10248e+06,900.001
0.00906,0.0444,3.37465e-18,0.2226,0.733,6.10248e+06,900.001
0.00908,0.0444,1.1784e-18,0.2226,0.733,6.10248e+06,900.001
0.0091,0.0444,4.06418e-19,0.2226,0.733,6.10248e+06,900.001
0.00912,0.0444,1.38399e-19,0.2226,0.733,6.10248e+06,900.001
0.00914,0.0444,4.65301e-20,0.2226,0.733,6.10248e+06,900.001
0.00916,0.0444,1.5445e-20,0.2226,0.733,6.10248e+06,900.001
0.00918,0.0444,5.06189e-21,0.2226,0.733,6.10248e+06,900.001
0.0092,0.0444,1.63806e-21,0.2226,0.733,6.10248e+06,900.001
0.00922,0.0444,9.27426e-22,0.2226,0.733,6.10248e+06,900.001
0.00924,0.0444,1.65174e-22,0.2226,0.733,6.10248e+06,900.001
0.00926,0.0444,5.14749e-23,0.2226,0.733,6.10248e+06,900.001
0.00928,0.0444,1.58438e-23,0.2226,0.733,6.10248e+06,900.001
0.0093,0.0444,4.81689e-24,0.2226,0.733,6.10248e+06,900.001
0.00932,0.0444,1.44662e-24,0.2226,0.733,6.10248e+06,900.001
0.00934,0.0444,4.29197e-25,0.2226,0.733,6.10248e+06,900.001
0.00936,0.0444,1.25809e-25,0.2226,0.733,6.10248e+06,900.001
0.00938,0.0444,3.64376e-26,0.2226,0.733,6.10248e+06,900.001
0.0094,0.0444,1.04281e-26,0.2226,0.733,6.10248e+06,900.001
0.00942,0.0444,2.94921e-27,0.2226,0.733,6.10248e+06,900.001