x,NH3,C7H16,O2,N2,p,T
0,1.67982e-322,1,0,0,6.10255e+06,363
2e-05,0,1,0,0,6.10255e+06,363
4e-05,1.63042e-322,1,1.4822e-322,1.11022e-16,6.10255e+06,363
6e-05,1.58101e-322,1,1.33398e-322,2.22045e-16,6.10255e+06,363
8e-05,3.45846e-323,1,0,4.44089e-16,6.10255e+06,363
0.0001,0,1,1.72923e-322,4.44089e-16,6.10255e+06,363
0.00012,0,1,0,2.22045e-16,6.10255e+06,363
0.00014,0,1,0,7.77156e-16,6.10255e+06,363
0.00016,0,1,1.58101e-322,9.99201e-16,6.10255e+06,363
0.00018,0,1,0,1.22125e-15,6.10255e+06,363
0.0002,1.97626e-323,1,0,4.44089e-16,6.10255e+06,363
0.00022,2.47033e-323,1,0,3.33067e-16,6.10255e+06,363
0.00024,0,1,1.5316e-322,1.11022e-16,6.10255e+06,363
0.00026,1.38338e-322,1,0,0,6.10255e+06,363
0.00028,3.95253e-323,1,1.33398e-322,4.44089e-16,6.10255e+06,363
0.0003,1.28457e-322,1,0,1.33227e-15,6.10255e+06,363
0.00032,1.43279e-322,1,0,1.55431e-15,6.10255e+06,363
0.00034,2.47033e-323,1,0,1.55431e-15,6.10255e+06,363
0.00036,1.33398e-322,1,0,1.44329e-15,6.10255e+06,363
0.00038,1.97626e-323,1,0,1.33227e-15,6.10255e+06,363
0.0004,1.67982e-322,1,0,1.22125e-15,6.10255e+06,363
0.00042,0,1,1.23516e-322,1.33227e-15,6.10255e+06,363
0.00044,0,1,0,1.44329e-15,6.10255e+06,363
0.00046,0,1,1.43279e-322,1.44329e-15,6.10255e+06,363
0.00048,0,1,1.58101e-322,1.33227e-15,6.10255e+06,363
0.0005,0,1,0,1.22125e-15,6.10255e+06,363
0.00052,1.38338e-322,1,0,1.11022e-15,6.10255e+06,363
0.00054,0,1,0,1.33227e-15,6.10255e+06,363
0.00056,1.38338e-322,1,1.38338e-322,9.99201e-16,6.10255e+06,363
0.00058,0,1,0,1.22125e-15,6.10255e+06,363
0.0006,0,1,1.33398e-322,1.77636e-15,6.10255e+06,363
0.00062,0,1,3.70549e-322,1.33227e-15,6.10255e+06,363
0.00064,0,1,6.42285e-322,9.99201e-16,6.10255e+06,363
0.00066,0,1,3.31024e-322,1.55431e-15,6.10255e+06,363
0.00068,1.58101e-322,1,6.62048e-322,1.33227e-15,6.10255e+06,363
0.0007,2.47033e-323,1,3.50787e-322,1.33227e-15,6.10255e+06,363
0.00072,0,1,6.66989e-322,1.33227e-15,6.10255e+06,363
0.00074,0,1,4.5454e-322,1.55431e-15,6.10255e+06,363
0.00076,0,1,6.52167e-322,1.66533e-15,6.10255e+06,363
0.00078,0,1,8.54734e-322,1.55431e-15,6.10255e+06,363
0.0008,0,1,1.16599e-321,1.55431e-15,6.10255e+06,363
0.00082,0,1,1.15117e-321,8.88178e-16,6.10255e+06,363
0.00084,0,1,1.13141e-321,9.99201e-16,6.10255e+06,363
0.00086,0,1,1.35868e-321,9.99201e-16,6.10255e+06,363
0.00088,2.47033e-323,1,1.13141e-321,8.88178e-16,6.10255e+06,363
0.0009,0,1,1.36856e-321,1.22125e-15,6.10255e+06,363
0.00092,0,1,1.99603e-321,1.22125e-15,6.10255e+06,363
0.00094,0,1,2.50491e-321,1.44329e-15,6.10255e+06,363
0.00096,0,1,2.54444e-321,1.22125e-15,6.10255e+06,363
0.00098,0,1,2.49009e-321,1.22125e-15,6.10255e+06,363
0.001,0,1,2.50985e-321,5.55112e-16,6.10255e+06,363
0.00102,0,1,2.55926e-321,1.11022e-15,6.10255e+06,363
0.00104,0,1,2.53456e-321,1.22125e-15,6.10255e+06,363
0.00106,0,1,2.56914e-321,1.11022e-15,6.10255e+06,363
0.00108,9.88131e-324,1,2.65313e-321,7.77156e-16,6.10255e+06,363
0.0011,1.23516e-322,1,2.66301e-321,9.99201e-16,6.10255e+06,363
0.00112,1.28457e-322,1,3.07309e-321,8.88178e-16,6.10255e+06,363
0.00114,0,1,3.16696e-321,7.77156e-16,6.10255e+06,363
0.00116,1.63042e-322,1,3.16696e-321,6.66134e-16,6.10255e+06,363
0.00118,0,1,3.19166e-321,6.66134e-16,6.10255e+06,363
0.0012,0,1,3.23613e-321,8.88178e-16,6.10255e+06,363
0.00122,1.38338e-322,1,3.13732e-321,1.22125e-15,6.10255e+06,363
0.00124,0,1,3.24601e-321,1.11022e-15,6.10255e+06,363
0.00126,0,1,3.17684e-321,1.11022e-15,6.10255e+06,363
0.00128,1.5316e-322,1,3.13732e-321,7.77156e-16,6.10255e+06,363
0.0013,0,1,3.24107e-321,9.99201e-16,6.10255e+06,363
0.00132,0,1,3.11261e-321,5.55112e-16,6.10255e+06,363
0.00134,0,1,3.21143e-321,1.11022e-16,6.10255e+06,363
0.00136,0,1,3.11755e-321,6.66134e-16,6.10255e+06,363
0.00138,0,1,3.23119e-321,8.88178e-16,6.10255e+06,363
0.0014,0,1,3.32506e-321,4.44089e-16,6.10255e+06,363
0.00142,0,1,3.10767e-321,4.44089e-16,6.10255e+06,363
0.00144,0,1,3.1966e-321,6.66134e-16,6.10255e+06,363
0.00146,0,1,3.17684e-321,7.77156e-16,6.10255e+06,363
0.00148,1.4822e-322,1,3.21637e-321,6.66134e-16,6.10255e+06,363
0.0015,1.63042e-322,1,3.19166e-321,8.88178e-16,6.10255e+06,363
0.00152,1.4822e-322,1,3.21143e-321,1.11022e-15,6.10255e+06,363
0.00154,0,1,3.34977e-321,7.77156e-16,6.10255e+06,363
0.00156,0,1,3.22625e-321,0,6.10255e+06,363
0.00158,0,1,3.25095e-321,3.33067e-16,6.10255e+06,363
0.0016,1.17094e-321,1,4.04146e-321,7.77156e-16,6.10255e+06,363
0.00162,1.35621e-320,1,3.94264e-321,9.99201e-16,6.10255e+06,363
0.00164,4.4247e-319,1,7.13431e-321,2.22045e-16,6.10255e+06,363
0.00166,1.54979e-317,1,1.23778e-319,2.22045e-16,6.10255e+06,363
0.00168,5.41244e-316,1,4.28837e-318,2.22045e-16,6.10255e+06,363
0.0017,1.88044e-314,1,1.52111e-316,6.66134e-16,6.10255e+06,363
0.00172,6.49876e-313,1,5.37193e-315,4.44089e-16,6.10255e+06,363
0.00174,2.23407e-311,1,1.88728e-313,7.77156e-16,6.10255e+06,363
0.00176,7.63931e-310,1,6.59575e-312,6.66134e-16,6.10255e+06,363
0.00178,2.59834e-308,1,2.293e-310,7.77156e-16,6.10255e+06,363
0.0018,8.79051e-307,1,7.92954e-309,7.77156e-16,6.10255e+06,363
0.00182,2.95804e-305,1,2.72766e-307,6.66134e-16,6.10255e+06,363
0.00184,9.90057e-304,1,9.33307e-306,9.99201e-16,6.10255e+06,363
0.00186,3.29591e-302,1,3.17646e-304,8.88178e-16,6.10255e+06,363
0.00188,1.0913e-300,1,1.07532e-302,1.55431e-15,6.10255e+06,363
0.0019,3.59382e-299,1,3.6208e-301,9.99201e-16,6.10255e+06,363
0.00192,1.17709e-297,1,1.21264e-299,8.88178e-16,6.10255e+06,363
0.00194,3.8344e-296,1,4.0394e-298,5.55112e-16,6.10255e+06,363
0.00196,1.24226e-294,1,1.33829e-296,8.88178e-16,6.10255e+06,363
0.00198,4.00263e-293,1,4.40986e-295,4.44089e-16,6.10255e+06,363
0.002,1.28261e-291,1,1.44522e-293,0,6.10255e+06,363
0.00202,4.08743e-290,1,4.71053e-292,2.22045e-16,6.10255e+06,363
0.00204,1.29541e-288,1,1.52695e-290,0,6.10255e+06,363
0.00206,7.27753e-288,1,8.67578e-290,2.22045e-16,6.10255e+06,363
0.00208,1.27967e-285,1,1.57822e-287,1.11022e-16,6.10255e+06,363
0.0021,3.98856e-284,1,5.03199e-286,6.66134e-16,6.10255e+06,363
0.00212,1.23626e-282,1,1.59552e-284,6.66134e-16,6.10255e+06,363
0.00214,3.81039e-281,1,5.03093e-283,7.77156e-16,6.10255e+06,363
0.00216,1.16786e-279,1,1.5775e-281,2.22045e-16,6.10255e+06,363
0.00218,3.55929e-278,1,4.91882e-280,0,6.10255e+06,363
0.0022,1.07866e-276,1,1.52515e-278,0,6.10255e+06,363
0.00222,3.25045e-275,1,4.70238e-277,1.11022e-16,6.10255e+06,363
0.00224,9.7395e-274,1,1.44168e-275,1.11022e-16,6.10255e+06,363
0.00226,2.90172e-272,1,4.39501e-274,3.33067e-16,6.10255e+06,363
0.00228,8.59591e-271,1,1.33224e-272,0,6.10255e+06,363
0.0023,2.53186e-269,1,4.01538e-271,0,6.10255e+06,363
0.00232,7.41468e-268,1,1.20334e-269,0,6.10255e+06,363
0.00234,2.15895e-266,1,3.58557e-268,2.22045e-16,6.10255e+06,363
0.00236,6.25002e-265,1,1.06225e-266,3.33067e-16,6.10255e+06,363
0.00238,1.79888e-263,1,3.1289e-265,1.11022e-16,6.10255e+06,363
0.0024,5.14755e-262,1,9.16306e-264,0,6.10255e+06,363
0.00242,1.46442e-260,1,2.66788e-262,0,6.10255e+06,363
0.00244,4.14182e-259,1,7.72259e-261,0,6.10255e+06,363
0.00246,1.16458e-257,1,2.22239e-259,0,6.10255e+06,363
0.00248,3.25532e-256,1,6.35819e-258,0,6.10255e+06,363
0.0025,9.04598e-255,1,1.80839e-256,0,6.10255e+06,363
0.00252,2.4989e-253,1,5.11315e-255,0,6.10255e+06,363
0.00254,6.8622e-252,1,1.4372e-253,0,6.10255e+06,363
0.00256,1.87324e-250,1,4.01574e-252,0,6.10255e+06,363
0.00258,5.08314e-249,1,1.1154e-250,0,6.10255e+06,363
0.0026,1.3711e-247,1,3.07963e-249,0,6.10255e+06,363
0.00262,3.6762e-246,1,8.45215e-248,0,6.10255e+06,363
0.00264,9.79744e-245,1,2.30582e-246,0,6.10255e+06,363
0.00266,2.59539e-243,1,6.25266e-245,0,6.10255e+06,363
0.00268,6.83377e-242,1,1.6853e-243,0,6.10255e+06,363
0.0027,1.78846e-240,1,4.51499e-242,0,6.10255e+06,363
0.00272,4.6521e-239,1,1.20224e-240,2.22045e-16,6.10255e+06,363
0.00274,1.20272e-237,1,3.18183e-239,0,6.10255e+06,363
0.00276,3.09039e-236,1,8.36952e-238,0,6.10255e+06,363
0.00278,7.89208e-235,1,2.18805e-236,2.22045e-16,6.10255e+06,363
0.0028,2.00304e-233,1,5.68507e-235,1.11022e-16,6.10255e+06,363
0.00282,5.0524e-232,1,1.46801e-233,1.11022e-16,6.10255e+06,363
0.00284,1.26651e-230,1,3.76729e-232,0,6.10255e+06,363
0.00286,3.15511e-229,1,9.60785e-231,0,6.10255e+06,363
0.00288,7.81101e-228,1,2.43507e-229,2.22045e-16,6.10255e+06,363
0.0029,1.92166e-226,1,6.13307e-228,2.22045e-16,6.10255e+06,363
0.00292,4.69802e-225,1,1.53502e-226,0,6.10255e+06,363
0.00294,1.14134e-223,1,3.81781e-225,0,6.10255e+06,363
0.00296,2.75527e-222,1,9.43557e-224,0,6.10255e+06,363
0.00298,6.60934e-221,1,2.31721e-222,0,6.10255e+06,363
0.003,1.57538e-219,1,5.65456e-221,0,6.10255e+06,363
0.00302,3.73112e-218,1,1.37107e-219,0,6.10255e+06,363
0.00304,8.78029e-217,1,3.30321e-218,0,6.10255e+06,363
0.00306,2.05299e-215,1,7.90718e-217,0,6.10255e+06,363
0.00308,4.76938e-214,1,1.88064e-215,0,6.10255e+06,363
0.0031,1.10085e-212,1,4.44407e-214,0,6.10255e+06,363
0.00312,2.52448e-211,1,1.04337e-212,0,6.10255e+06,363
0.00314,5.75161e-210,1,2.43368e-211,0,6.10255e+06,363
0.00316,1.30187e-208,1,5.63963e-210,0,6.10255e+06,363
0.00318,2.92752e-207,1,1.29835e-208,0,6.10255e+06,363
0.0032,6.53995e-206,1,2.96944e-207,0,6.10255e+06,363
0.00322,1.45139e-204,1,6.7467e-206,0,6.10255e+06,363
0.00324,3.19975e-203,1,1.52276e-204,0,6.10255e+06,363
0.00326,7.0075e-202,1,3.41417e-203,0,6.10255e+06,363
0.00328,1.52446e-200,1,7.60401e-202,0,6.10255e+06,363
0.0033,3.29431e-199,1,1.68226e-200,0,6.10255e+06,363
0.00332,7.07129e-198,1,3.69684e-199,0,6.10255e+06,363
0.00334,1.50768e-196,1,8.06939e-198,1.11022e-16,6.10255e+06,363
0.00336,3.1929e-195,1,1.74951e-196,0,6.10255e+06,363
0.00338,6.71611e-194,1,3.76742e-195,2.22045e-16,6.10255e+06,363
0.0034,1.40313e-192,1,8.0578e-194,3.33067e-16,6.10255e+06,363
0.00342,2.91146e-191,1,1.71168e-192,0,6.10255e+06,363
0.00344,6.00001e-190,1,3.61121e-191,1.11022e-16,6.10255e+06,363
0.00346,1.22803e-188,1,7.56651e-190,5.55112e-16,6.10255e+06,363
0.00348,2.49615e-187,1,1.57449e-188,3.33067e-16,6.10255e+06,363
0.0035,5.0388e-186,1,3.25371e-187,2.22045e-16,6.10255e+06,363
0.00352,1.01011e-184,1,6.67725e-186,4.44089e-16,6.10255e+06,363
0.00354,2.01087e-183,1,1.36078e-184,3.33067e-16,6.10255e+06,363
0.00356,3.97524e-182,1,2.75383e-183,0,6.10255e+06,363
0.00358,7.8036e-181,1,5.53396e-182,3.33067e-16,6.10255e+06,363
0.0036,1.52114e-179,1,1.10427e-180,2.22045e-16,6.10255e+06,363
0.00362,2.94425e-178,1,2.18796e-179,1.11022e-16,6.10255e+06,363
0.00364,5.65849e-177,1,4.30448e-178,0,6.10255e+06,363
0.00366,1.07978e-175,1,8.40828e-177,6.66134e-16,6.10255e+06,363
0.00368,2.04583e-174,1,1.63075e-175,0,6.10255e+06,363
0.0037,3.8485e-173,1,3.14016e-174,0,6.10255e+06,363
0.00372,7.18768e-172,1,6.00326e-173,3.33067e-16,6.10255e+06,363
0.00374,1.33276e-170,1,1.13942e-171,1.11022e-16,6.10255e+06,363
0.00376,2.45339e-169,1,2.14697e-170,1.11022e-15,6.10255e+06,363
0.00378,4.48357e-168,1,4.01613e-169,1.11022e-15,6.10255e+06,363
0.0038,8.13416e-167,1,7.45785e-168,1.22125e-15,6.10255e+06,363
0.00382,1.46494e-165,1,1.37478e-166,1.44329e-15,6.10255e+06,363
0.00384,2.61899e-164,1,2.51568e-165,2.22045e-16,6.10255e+06,363
0.00386,4.64776e-163,1,4.56948e-164,1.11022e-16,6.10255e+06,363
0.00388,8.18723e-162,1,8.23864e-163,0,6.10255e+06,363
0.0039,1.43154e-160,1,1.47438e-161,4.44089e-16,6.10255e+06,363
0.00392,2.48443e-159,1,2.6189e-160,1.44329e-15,6.10255e+06,363
0.00394,4.27955e-158,1,4.61709e-159,9.99201e-16,6.10255e+06,363
0.00396,7.31654e-157,1,8.07879e-158,1.33227e-15,6.10255e+06,363
0.00398,1.24147e-155,1,1.40295e-156,1.11022e-15,6.10255e+06,363
0.004,2.09062e-154,1,2.41791e-155,9.99201e-16,6.10255e+06,363
0.00402,3.49393e-153,1,4.13551e-154,1.33227e-15,6.10255e+06,363
0.00404,5.7948e-152,1,7.01935e-153,1.66533e-15,6.10255e+06,363
0.00406,9.5375e-151,1,1.18231e-151,1.33227e-15,6.10255e+06,363
0.00408,1.55772e-149,1,1.97614e-150,3.33067e-16,6.10255e+06,363
0.0041,2.52461e-148,1,3.2775e-149,0,6.10255e+06,363
0.00412,1.01341e-147,1,1.33089e-148,1.11022e-16,6.10255e+06,363
0.00414,6.47871e-146,1,8.80765e-147,1.11022e-16,6.10255e+06,363
0.00416,1.02578e-144,1,1.427e-145,3.33067e-16,6.10255e+06,363
0.00418,1.61144e-143,1,2.29391e-144,1.11022e-16,6.10255e+06,363
0.0042,2.51163e-142,1,3.65848e-143,2.22045e-16,6.10255e+06,363
0.00422,3.88386e-141,1,5.78874e-142,2.22045e-16,6.10255e+06,363
0.00424,5.95835e-140,1,9.08684e-141,6.66134e-16,6.10255e+06,363
0.00426,9.06836e-139,1,1.41506e-139,3.33067e-16,6.10255e+06,363
0.00428,1.36917e-137,1,2.18601e-138,0,6.10255e+06,363
0.0043,2.05068e-136,1,3.34991e-137,5.55112e-16,6.10255e+06,363
0.00432,3.04676e-135,1,5.09218e-136,3.33067e-16,6.10255e+06,363
0.00434,4.49016e-134,1,7.67802e-135,2.22045e-16,6.10255e+06,363
0.00436,6.56381e-133,1,1.1483e-133,6.66134e-16,6.10255e+06,363
0.00438,9.5171e-132,1,1.70336e-132,3.33067e-16,6.10255e+06,363
0.0044,1.36866e-130,1,2.50605e-131,5.55112e-16,6.10255e+06,363
0.00442,1.95214e-129,1,3.65671e-130,2.22045e-16,6.10255e+06,363
0.00444,2.76146e-128,1,5.29165e-129,4.44089e-16,6.10255e+06,363
0.00446,1.03539e-127,1,2.00672e-128,5.55112e-16,6.10255e+06,363
0.00448,5.38977e-126,1,1.08078e-126,9.99201e-16,6.10255e+06,363
0.0045,7.43606e-125,1,1.52529e-125,1.44329e-15,6.10255e+06,363
0.00452,1.01734e-123,1,2.13456e-124,1.44329e-15,6.10255e+06,363
0.00454,1.38015e-122,1,2.96203e-123,1.77636e-15,6.10255e+06,363
0.00456,1.85656e-121,1,4.07549e-122,1.11022e-15,6.10255e+06,363
0.00458,2.47625e-120,1,5.55985e-121,1.22125e-15,6.10255e+06,363
0.0046,3.27468e-119,1,7.52012e-120,2.22045e-15,6.10255e+06,363
0.00462,4.29355e-118,1,1.00843e-118,1.77636e-15,6.10255e+06,363
0.00464,5.58112e-117,1,1.34065e-117,1.55431e-15,6.10255e+06,363
0.00466,7.19229e-116,1,1.76691e-116,1.9984e-15,6.10255e+06,363
0.00468,9.18836e-115,1,2.30847e-115,1.9984e-15,6.10255e+06,363
0.0047,1.16363e-113,1,2.98971e-114,1.9984e-15,6.10255e+06,363
0.00472,1.46079e-112,1,3.83808e-113,1.44329e-15,6.10255e+06,363
0.00474,1.81774e-111,1,4.88384e-112,7.77156e-16,6.10255e+06,363
0.00476,2.242e-110,1,6.15963e-111,6.66134e-16,6.10255e+06,363
0.00478,2.74082e-109,1,7.69972e-110,4.44089e-16,6.10255e+06,363
0.0048,3.32085e-108,1,9.53907e-109,8.88178e-16,6.10255e+06,363
0.00482,3.98772e-107,1,1.1712e-107,9.99201e-16,6.10255e+06,363
0.00484,4.74558e-106,1,1.42505e-106,1.33227e-15,6.10255e+06,363
0.00486,5.59662e-105,1,1.71826e-105,1.88738e-15,6.10255e+06,363
0.00488,6.54058e-104,1,2.05299e-104,1.66533e-15,6.10255e+06,363
0.0049,7.5743e-103,1,2.43056e-103,1.33227e-15,6.10255e+06,363
0.00492,8.69135e-102,1,2.85121e-102,7.77156e-16,6.10255e+06,363
0.00494,9.8817e-101,1,3.31389e-101,1.55431e-15,6.10255e+06,363
0.00496,1.11316e-99,1,3.81605e-100,1.9984e-15,6.10255e+06,363
0.00498,1.24236e-98,1,4.35349e-99,1.22125e-15,6.10255e+06,363
0.005,1.37367e-97,1,4.92029e-98,8.88178e-16,6.10255e+06,363
0.00502,1.50467e-96,1,5.50876e-97,1.33227e-15,6.10255e+06,363
0.00504,1.63271e-95,1,6.10954e-96,1.33227e-15,6.10255e+06,363
0.00506,1.75494e-94,1,6.71174e-95,1.22125e-15,6.10255e+06,363
0.00508,1.86847e-93,1,7.3032e-94,0,6.10255e+06,363
0.0051,1.97042e-92,1,7.8709e-93,4.44089e-16,6.10255e+06,363
0.00512,6.37575e-92,1,2.57461e-92,5.55112e-16,6.10255e+06,363
0.00514,2.12897e-90,1,8.88106e-91,1.11022e-16,6.10255e+06,363
0.00516,2.18108e-89,1,9.29723e-90,1.11022e-16,6.10255e+06,363
0.00518,2.21279e-88,1,9.63817e-89,1.11022e-16,6.10255e+06,363
0.0052,2.2231e-87,1,9.89389e-88,3.33067e-16,6.10255e+06,363
0.00522,2.2116e-86,1,1.00566e-86,8.88178e-16,6.10255e+06,363
0.00524,2.17851e-85,1,1.0121e-85,4.44089e-16,6.10255e+06,363
0.00526,2.12472e-84,1,1.00847e-84,1.11022e-16,6.10255e+06,363
0.00528,2.05167e-83,1,9.94834e-84,4.44089e-16,6.10255e+06,363
0.0053,1.96136e-82,1,9.71545e-83,1.33227e-15,6.10255e+06,363
0.00532,1.85622e-81,1,9.39244e-82,6.66134e-16,6.10255e+06,363
0.00534,1.739e-80,1,8.98824e-81,2.22045e-16,6.10255e+06,363
0.00536,1.61268e-79,1,8.51391e-80,1.11022e-16,6.10255e+06,363
0.00538,1.48032e-78,1,7.98214e-79,4.44089e-16,6.10255e+06,363
0.0054,1.34491e-77,1,7.40666e-78,1.11022e-16,6.10255e+06,363
0.00542,1.20931e-76,1,6.80166e-77,1.11022e-16,6.10255e+06,363
0.00544,1.07615e-75,1,6.1812e-76,0,6.10255e+06,363
0.00546,9.47695e-75,1,5.5587e-75,7.77156e-16,6.10255e+06,363
0.00548,8.25855e-74,1,4.94643e-74,1.11022e-16,6.10255e+06,363
0.0055,7.12122e-73,1,4.35516e-73,2.22045e-16,6.10255e+06,363
0.00552,6.07569e-72,1,3.79389e-72,3.33067e-16,6.10255e+06,363
0.00554,5.12864e-71,1,3.26972e-71,0,6.10255e+06,363
0.00556,4.28303e-70,1,2.78775e-70,0,6.10255e+06,363
0.00558,3.53846e-69,1,2.35121e-69,1.44329e-15,6.10255e+06,363
0.0056,2.89181e-68,1,1.96154e-68,2.88658e-15,6.10255e+06,363
0.00562,2.3377e-67,1,1.61861e-67,1.44329e-15,6.10255e+06,363
0.00564,1.86915e-66,1,1.321e-66,1.55431e-15,6.10255e+06,363
0.00566,1.47814e-65,1,1.06623e-65,2.22045e-15,6.10255e+06,363
0.00568,1.15603e-64,1,8.51063e-65,1.88738e-15,6.10255e+06,363
0.0057,8.94087e-64,1,6.71745e-64,1.55431e-15,6.10255e+06,363
0.00572,6.83789e-63,1,5.24267e-63,9.99201e-16,6.10255e+06,363
0.00574,5.17091e-62,1,4.04556e-62,9.99201e-16,6.10255e+06,363
0.00576,3.86622e-61,1,3.08641e-61,1.55431e-15,6.10255e+06,363
0.00578,2.85793e-60,1,2.32781e-60,8.88178e-16,6.10255e+06,363
0.0058,2.0885e-59,1,1.73553e-59,1.66533e-15,6.10255e+06,363
0.00582,1.50871e-58,1,1.27903e-58,1.88738e-15,6.10255e+06,363
0.00584,1.0773e-57,1,9.31662e-58,1.11022e-15,6.10255e+06,363
0.00586,7.60319e-57,1,6.70715e-57,1.44329e-15,6.10255e+06,363
0.00588,5.30339e-56,1,4.77187e-56,7.77156e-16,6.10255e+06,363
0.0059,3.65578e-55,1,3.3549e-55,1.11022e-15,6.10255e+06,363
0.00592,2.49026e-54,1,2.33066e-54,1.44329e-15,6.10255e+06,363
0.00594,1.67616e-53,1,1.59976e-53,9.99201e-16,6.10255e+06,363
0.00596,1.11471e-52,1,1.08487e-52,1.9984e-15,6.10255e+06,363
0.00598,7.32409e-52,1,7.26799e-52,1.22125e-15,6.10255e+06,363
0.006,4.75397e-51,1,4.80985e-51,7.77156e-16,6.10255e+06,363
0.00602,3.04816e-50,1,3.1441e-50,1.44329e-15,6.10255e+06,363
0.00604,1.93049e-49,1,2.02991e-49,2.10942e-15,6.10255e+06,363
0.00606,1.20756e-48,1,1.29431e-48,1.22125e-15,6.10255e+06,363
0.00608,7.45992e-48,1,8.14985e-48,1.11022e-15,6.10255e+06,363
0.0061,4.55099e-47,1,5.06727e-47,8.88178e-16,6.10255e+06,363
0.00612,2.74153e-46,1,3.11086e-46,1.22125e-15,6.10255e+06,363
0.00614,1.63064e-45,1,1.88552e-45,1.77636e-15,6.10255e+06,363
0.00616,9.5757e-45,1,1.12822e-44,1.77636e-15,6.10255e+06,363
0.00618,5.5513e-44,1,6.66397e-44,2.10942e-15,6.10255e+06,363
0.0062,3.17684e-43,1,3.8852e-43,5.55112e-16,6.10255e+06,363
0.00622,1.79448e-42,1,2.23563e-42,0,6.10255e+06,363
0.00624,1.00043e-41,1,1.26957e-41,0,6.10255e+06,363
0.00626,5.50438e-41,1,7.11453e-41,0,6.10255e+06,363
0.00628,2.98857e-40,1,3.93399e-40,1.22125e-15,6.10255e+06,363
0.0063,1.6011e-39,1,2.14625e-39,9.99201e-16,6.10255e+06,363
0.00632,8.46315e-39,1,1.15518e-38,5.55112e-16,6.10255e+06,363
0.00634,4.41336e-38,1,6.13342e-38,1.33227e-15,6.10255e+06,363
0.00636,2.27034e-37,1,3.21218e-37,1.44329e-15,6.10255e+06,363
0.00638,1.15202e-36,1,1.65922e-36,1.11022e-16,6.10255e+06,363
0.0064,5.76544e-36,1,8.4522e-36,7.77156e-16,6.10255e+06,363
0.00642,2.84557e-35,1,4.2458e-35,4.44089e-16,6.10255e+06,363
0.00644,1.38494e-34,1,2.10296e-34,3.33067e-16,6.10255e+06,363
0.00646,6.64616e-34,1,1.02692e-33,1.22125e-15,6.10255e+06,363
0.00648,3.14448e-33,1,4.94357e-33,1.88738e-15,6.10255e+06,363
0.0065,1.46663e-32,1,2.3458e-32,8.88178e-16,6.10255e+06,363
0.00652,6.74283e-32,1,1.0971e-31,5.55112e-16,6.10255e+06,363
0.00654,3.0554e-31,1,5.05663e-31,8.88178e-16,6.10255e+06,363
0.00656,1.36443e-30,1,2.29661e-30,4.44089e-16,6.10255e+06,363
0.00658,6.00412e-30,1,1.02773e-29,1.55431e-15,6.10255e+06,363
0.0066,2.60322e-29,1,4.5309e-29,1.22125e-15,6.10255e+06,363
0.00662,1.11197e-28,1,1.96771e-28,2.33147e-15,6.10255e+06,363
0.00664,4.67887e-28,1,8.41698e-28,1.22125e-15,6.10255e+06,363
0.00666,1.93914e-27,1,3.54585e-27,6.66134e-16,6.10255e+06,363
0.00668,7.91491e-27,1,1.47096e-26,5.55112e-16,6.10255e+06,363
0.0067,3.18125e-26,1,6.00817e-26,2.22045e-16,6.10255e+06,363
0.00672,1.25896e-25,1,2.41598e-25,4.44089e-16,6.10255e+06,363
0.00674,4.90499e-25,1,9.56315e-25,0,6.10255e+06,363
0.00676,1.88114e-24,1,3.72572e-24,1.11022e-15,6.10255e+06,363
0.00678,7.10091e-24,1,1.42847e-23,3.33067e-16,6.10255e+06,363
0.0068,2.63797e-23,1,5.38938e-23,3.33067e-16,6.10255e+06,363
0.00682,9.64375e-23,1,2.00063e-22,0,6.10255e+06,363
0.00684,3.46901e-22,1,7.30667e-22,0,6.10255e+06,363
0.00686,1.22776e-21,1,2.62519e-21,6.66134e-16,6.10255e+06,363
0.00688,4.27497e-21,1,9.27802e-21,1.22125e-15,6.10255e+06,363
0.0069,1.46427e-20,1,3.22521e-20,0,6.10255e+06,363
0.00692,4.93304e-20,1,1.10257e-19,0,6.10255e+06,363
0.00694,1.63423e-19,1,3.70593e-19,0,6.10255e+06,363
0.00696,5.32197e-19,1,1.22428e-18,0,6.10255e+06,363
0.00698,1.70317e-18,1,3.97394e-18,0,6.10255e+06,363
0.007,5.35691e-18,1,1.26753e-17,0,6.10255e+06,363
0.00702,1.6568e-17,1,3.97498e-17,1.11022e-15,6.10255e+06,363
0.00704,5.02296e-17,1,1.22164e-16,1.44329e-15,6.10255e+06,363
0.00706,1.5292e-16,1,3.7717e-16,2.77556e-15,6.10255e+06,363
0.00708,4.79268e-16,1,1.20015e-15,9.65894e-15,6.10255e+06,363
0.0071,1.59269e-15,1,4.05767e-15,3.75255e-14,6.10255e+06,363
0.00712,5.59938e-15,1,1.45457e-14,1.33893e-13,6.10255e+06,363
0.00714,1.99924e-14,1,5.30082e-14,4.72733e-13,6.10255e+06,363.001
0.00716,7.03943e-14,1,1.90508e-13,1.62814e-12,6.10255e+06,363.001
0.00718,2.41791e-13,1,6.67669e-13,5.45475e-12,6.10255e+06,363.002
0.0072,8.07252e-13,1,2.27337e-12,1.7756e-11,6.10255e+06,363.003
0.00722,2.61807e-12,1,7.51564e-12,5.61766e-11,6.10255e+06,363.005
0.00724,8.24713e-12,1,2.41209e-11,1.72735e-10,6.10255e+06,363.008
0.00726,2.52317e-11,1,7.51493e-11,5.16168e-10,6.10255e+06,363.014
0.00728,7.49703e-11,1,2.27268e-10,1.49893e-09,6.10255e+06,363.024
0.0073,2.16327e-10,1,6.6713e-10,4.22996e-09,6.10255e+06,363.041
0.00732,6.06159e-10,1,1.90074e-09,1.15994e-08,6.10255e+06,363.07
0.00734,1.64928e-09,1,5.25593e-09,3.09073e-08,6.10255e+06,363.116
0.00736,4.35713e-09,1,1.41047e-08,8.00167e-08,6.10255e+06,363.191
0.00738,1.11755e-08,1,3.67309e-08,2.01262e-07,6.10255e+06,363.309
0.0074,2.78251e-08,0.999999,9.28114e-08,4.91767e-07,6.10255e+06,363.493
0.00742,6.72419e-08,0.999999,2.27515e-07,1.16711e-06,6.10255e+06,363.777
0.00744,1.57679e-07,0.999997,5.40967e-07,2.68988e-06,6.10255e+06,364.206
0.00746,3.5868e-07,0.999992,1.24728e-06,6.01885e-06,6.10255e+06,364.844
0.00748,7.91147e-07,0.999983,2.78764e-06,1.30708e-05,6.10255e+06,365.776
0.0075,1.69121e-06,0.999965,6.03651e-06,2.75367e-05,6.10255e+06,367.112
0.00752,3.50143e-06,0.999928,1.26581e-05,5.62476e-05,6.10255e+06,368.993
0.00754,7.01561e-06,0.999856,2.56857e-05,0.000111328,6.10255e+06,371.585
0.00756,1.35923e-05,0.999723,5.04011e-05,0.000213358,6.10255e+06,375.079
0.00758,2.54419e-05,0.999483,9.55636e-05,0.000395649,6.10255e+06,379.679
0.0076,4.59734e-05,0.99907,0.000174972,0.000709483,6.10255e+06,385.586
0.00762,8.0155e-05,0.998381,0.00030923,0.00122977,6.10255e+06,392.977
0.00764,0.000134819,0.997277,0.000527465,0.00206023,6.10255e+06,401.986
0.00766,0.000218832,0.995575,0.000868687,0.00333708,6.10255e+06,412.691
0.00768,0.000343081,0.993044,0.00138252,0.00523046,6.10255e+06,425.102
0.0077,0.000520278,0.989407,0.00212922,0.00794336,6.10255e+06,439.177
0.00772,0.00076465,0.984347,0.00317911,0.0117088,6.10255e+06,454.829
0.00774,0.00109161,0.97751,0.00461169,0.0167862,6.10255e+06,471.947
0.00776,0.0015175,0.96851,0.00651481,0.0234579,6.10255e+06,490.413
0.00778,0.00205945,0.95693,0.00898406,0.0320268,6.10255e+06,510.108
0.0078,0.00273537,0.942328,0.0121223,0.042814,6.10255e+06,530.922
0.00782,0.00356392,0.924239,0.0160394,0.0561572,6.10255e+06,552.747
0.00784,0.00456444,0.902178,0.0208509,0.0724065,6.10255e+06,575.467
0.00786,0.00513536,0.889503,0.0236293,0.0817319,6.10255e+06,587.122
0.00788,0.00715997,0.844177,0.0336321,0.115031,6.10255e+06,623.011
0.0079,0.0079464,0.826447,0.0375689,0.128038,6.10255e+06,635.194
0.00792,0.0106663,0.764755,0.0513495,0.173229,6.10255e+06,671.915
0.00794,0.0127894,0.716316,0.0622428,0.208652,6.10255e+06,696.086
0.00796,0.0151566,0.662116,0.0744905,0.248237,6.10255e+06,719.509
0.00798,0.0177474,0.602642,0.0879854,0.291625,6.10255e+06,741.714
0.008,0.0205212,0.538847,0.102508,0.338124,6.10255e+06,762.245
0.00802,0.0234152,0.472201,0.117712,0.386671,6.10255e+06,780.731
0.00804,0.0263466,0.404646,0.133138,0.435869,6.10255e+06,796.95
0.00806,0.0292186,0.338441,0.148246,0.484094,6.10255e+06,810.868
0.00808,0.0319329,0.275892,0.162489,0.529686,6.10255e+06,822.638
0.0081,0.0344032,0.219026,0.175386,0.571185,6.10255e+06,832.554
0.00812,0.0365677,0.169305,0.186598,0.607529,6.10255e+06,840.973
0.00814,0.0383957,0.127472,0.19596,0.638172,6.10255e+06,848.241
0.00816,0.0398869,0.093548,0.20348,0.663086,6.10255e+06,854.641
0.00818,0.0410654,0.0669758,0.2093,0.682659,6.10255e+06,860.371
0.0082,0.0415493,0.0561642,0.211643,0.690643,6.10255e+06,863.027
0.00822,0.0426488,0.0319925,0.216795,0.708564,6.10255e+06,870.261
0.00824,0.0429174,0.0262242,0.217997,0.712862,6.10255e+06,872.444
0.00826,0.0435045,0.0139797,0.220479,0.722037,6.10255e+06,878.34
0.00828,0.0437592,0.00894949,0.221447,0.725844,6.10255e+06,881.741
0.0083,0.0439384,0.00561064,0.222054,0.728397,6.10255e+06,884.734
0.00832,0.0440641,0.00344544,0.222414,0.730076,6.10255e+06,887.34
0.00834,0.0441522,0.00207303,0.222614,0.731161,6.10255e+06,889.585
0.00836,0.0442145,0.00122278,0.222713,0.731849,6.10255e+06,891.496
0.00838,0.0442584,0.000718727,0.222751,0.732272,6.10255e+06,893.094
0.0084,0.04429,0.000422956,0.222755,0.732532,6.10255e+06,894.418
0.00842,0.0443146,0.000235232,0.222744,0.732706,6.10255e+06,895.542
0.00844,0.0443332,0.000127518,0.222726,0.732814,6.10255e+06,896.468
0.00846,0.0443475,6.76698e-05,0.222705,0.73288,6.10255e+06,897.222
0.00848,0.0443586,3.51626e-05,0.222685,0.732922,6.10255e+06,897.831
0.0085,0.0443674,1.78894e-05,0.222667,0.732948,6.10255e+06,898.319
0.00852,0.0443743,8.91072e-06,0.222652,0.732965,6.10255e+06,898.707
0.00854,0.0443772,6.23898e-06,0.222645,0.732971,6.10255e+06,898.869
0.00856,0.0443843,2.07422e-06,0.22263,0.732984,6.10255e+06,899.251
0.00858,0.0443861,1.4217e-06,0.222626,0.732987,6.10255e+06,899.349
0.0086,0.0443905,4.43357e-07,0.222616,0.732993,6.10255e+06,899.578
0.00862,0.0443927,1.98507e-07,0.222612,0.732995,6.10255e+06,899.687
0.00864,0.0443944,8.69967e-08,0.222609,0.732997,6.10255e+06,899.769
0.00866,0.0443958,3.73185e-08,0.222606,0.732998,6.10255e+06,899.831
0.00868,0.0443968,1.56688e-08,0.222605,0.732999,6.10255e+06,899.878
0.0087,0.0443976,6.43926e-09,0.222603,0.732999,6.10255e+06,899.912
0.00872,0.0443982,2.59013e-09,0.222602,0.733,6.10255e+06,899.937
0.00874,0.0443987,1.01974e-09,0.222602,0.733,6.10255e+06,899.955
0.00876,0.044399,3.92951e-10,0.222601,0.733,6.10255e+06,899.968
0.00878,0.0443993,1.48202e-10,0.222601,0.733,6.10255e+06,899.978
0.0088,0.0443995,5.47016e-11,0.222601,0.733,6.10255e+06,899.985
0.00882,0.0443996,1.97552e-11,0.2226,0.733,6.10255e+06,899.989
0.00884,0.0443997,7.25168e-12,0.2226,0.733,6.10255e+06,899.993
0.00886,0.0443998,2.8785e-12,0.2226,0.733,6.10255e+06,899.995
0.00888,0.0443998,1.68666e-12,0.2226,0.733,6.10255e+06,899.996
0.0089,0.0443999,3.25923e-13,0.2226,0.733,6.10255e+06,899.998
0.00892,0.0443999,1.86311e-13,0.2226,0.733,6.10255e+06,899.998
0.00894,0.0444,3.38088e-14,0.2226,0.733,6.10255e+06,899.999
0.00896,0.0444,1.06392e-14,0.2226,0.733,6.10255e+06,899.999
0.00898,0.0444,3.35032e-15,0.2226,0.733,6.10255e+06,900
0.009,0.0444,1.08584e-15,0.2226,0.733,6.10255e+06,900
0.00902,0.0444,3.70068e-16,0.2226,0.733,6.10255e+06,900
0.00904,0.0444,1.31036e-16,0.2226,0.733,6.10255e+06,900
0.00906,0.0444,4.70405e-17,0.2226,0.733,6.10255e+06,900
0.00908,0.0444,1.68578e-17,0.2226,0.733,6.10255e+06,900
0.0091,0.0444,5.98873e-18,0.2226,0.733,6.10255e+06,900
0.00912,0.0444,2.10314e-18,0.2226,0.733,6.10255e+06,900
0.00914,0.0444,7.29384e-19,0.2226,0.733,6.10255e+06,900
0.00916,0.0444,2.49719e-19,0.2226,0.733,6.10255e+06,900
0.00918,0.0444,8.43965e-20,0.2226,0.733,6.10255e+06,900
0.0092,0.0444,2.81569e-20,0.2226,0.733,6.10255e+06,900
0.00922,0.0444,1.61852e-20,0.2226,0.733,6.10255e+06,900
0.00924,0.0444,3.01562e-21,0.2226,0.733,6.10255e+06,900
0.00926,0.0444,9.68214e-22,0.2226,0.733,6.10255e+06,900
0.00928,0.0444,3.06957e-22,0.2226,0.733,6.10255e+06,900
0.0093,0.0444,9.61008e-23,0.2226,0.733,6.10255e+06,900
0.00932,0.0444,2.97134e-23,0.2226,0.733,6.10255e+06,900
0.00934,0.0444,9.07375e-24,0.2226,0.733,6.10255e+06,900
0.00936,0.0444,2.73692e-24,0.2226,0.733,6.10255e+06,900
0.00938,0.0444,8.15473e-25,0.2226,0.733,6.10255e+06,900
0.0094,0.0444,2.40028e-25,0.2226,0.733,6.10255e+06,900
0.00942,0.0444,6.97988e-26,0.2226,0.733,6.10255e+06,900
0.00944,0.0444,2.0054e-26,0.2226,0.733,6.10255e+06,900
0.00946,0.0444,5.6931e-27,0.2226,0.733,6.10255e+06,900
0.00948,0.0444,1.59707e-27,0.2226,0.733,6.10255e+06,900
0.0095,0.0444,4.42746e-28,0.2226,0.733,6.10255e+06,900
0.00952,0.0444,1.21303e-28,0.2226,0.733,6.10255e+06,900
0.00954,0.0444,3.28475e-29,0.2226,0.733,6.10255e+06,900
0.00956,0.0444,1.70184e-29,0.2226,0.733,6.10255e+06,900
0.00958,0.0444,2.32607e-30,0.2226,0.733,6.10255e+06,900
0.0096,0.0444,6.08373e-31,0.2226,0.733,6.10255e+06,900
0.00962,0.0444,1.57306e-31,0.2226,0.733,6.10255e+06,900
0.00964,0.0444,4.02139e-32,0.2226,0.733,6.10255e+06,900
0.00966,0.0444,1.01646e-32,0.2226,0.733,6.10255e+06,900
0.00968,0.0444,2.54048e-33,0.2226,0.733,6.10255e+06,900
0.0097,0.0444,6.27881e-34,0.2226,0.733,6.10255e+06,900
0.00972,0.0444,1.53463e-34,0.2226,0.733,6.10255e+06,900
0.00974,0.0444,3.70953e-35,0.2226,0.733,6.10255e+06,900
0.00976,0.0444,8.86849e-36,0.2226,0.733,6.10255e+06,900
0.00978,0.0444,2.09712e-36,0.2226,0.733,6.10255e+06,900
0.0098,0.0444,4.90526e-37,0.2226,0.733,6.10255e+06,900
0.00982,0.0444,1.13499e-37,0.2226,0.733,6.10255e+06,900
0.00984,0.0444,2.59801e-38,0.2226,0.733,6.10255e+06,900
0.00986,0.0444,5.8833e-39,0.2226,0.733,6.10255e+06,900
0.00988,0.0444,1.31805e-39,0.2226,0.733,6.10255e+06,900
0.0099,0.0444,6.21316e-40,0.2226,0.733,6.10255e+06,900
0.00992,0.0444,6.39229e-41,0.2226,0.733,6.10255e+06,900
0.00994,0.0444,1.37321e-41,0.2226,0.733,6.10255e+06,900
0.00996,0.0444,2.80574e-42,0.2226,0.733,6.10255e+06,900
0.00998,0.0444,4.51976e-43,0.2226,0.733,6.10255e+06,900
0.01,0.0444,1.08362e-43,0.2226,0.733,6.10255e+06,900
