x,NH3,C7H16,O2,N2,p,T
0,1.67982e-322,1,0,0,6.10255e+06,363
2e-05,0,1,0,0,6.10255e+06,363
4e-05,1.63042e-322,1,1.4822e-322,0,6.10255e+06,363
6e-05,1.58101e-322,1,1.33398e-322,0,6.10255e+06,363
8e-05,3.45846e-323,1,0,1.11022e-16,6.10255e+06,363
0.0001,0,1,1.72923e-322,3.33067e-16,6.10255e+06,363
0.00012,0,1,0,4.44089e-16,6.10255e+06,363
0.00014,0,1,0,2.22045e-16,6.10255e+06,363
0.00016,0,1,1.58101e-322,4.44089e-16,6.10255e+06,363
0.00018,0,1,0,4.44089e-16,6.10255e+06,363
0.0002,1.97626e-323,1,0,0,6.10255e+06,363
0.00022,2.47033e-323,1,0,1.11022e-16,6.10255e+06,363
0.00024,0,1,1.5316e-322,2.22045e-16,6.10255e+06,363
0.00026,1.38338e-322,1,0,0,6.10255e+06,363
0.00028,3.95253e-323,1,1.33398e-322,1.11022e-16,6.10255e+06,363
0.0003,1.28457e-322,1,0,1.11022e-16,6.10255e+06,363
0.00032,1.43279e-322,1,0,2.22045e-16,6.10255e+06,363
0.00034,2.47033e-323,1,0,3.33067e-16,6.10255e+06,363
0.00036,1.33398e-322,1,0,6.66134e-16,6.10255e+06,363
0.00038,1.97626e-323,1,0,1.44329e-15,6.10255e+06,363
0.0004,1.67982e-322,1,0,8.88178e-16,6.10255e+06,363
0.00042,0,1,1.23516e-322,9.99201e-16,6.10255e+06,363
0.00044,0,1,0,1.22125e-15,6.10255e+06,363
0.00046,0,1,1.43279e-322,1.66533e-15,6.10255e+06,363
0.00048,0,1,1.58101e-322,1.44329e-15,6.10255e+06,363
0.0005,0,1,0,1.11022e-15,6.10255e+06,363
0.00052,1.38338e-322,1,0,1.22125e-15,6.10255e+06,363
0.00054,0,1,0,1.33227e-15,6.10255e+06,363
0.00056,1.38338e-322,1,1.38338e-322,1.33227e-15,6.10255e+06,363
0.00058,0,1,0,2.33147e-15,6.10255e+06,363
0.0006,0,1,1.33398e-322,2.55351e-15,6.10255e+06,363
0.00062,0,1,3.70549e-322,2.33147e-15,6.10255e+06,363
0.00064,0,1,6.42285e-322,2.44249e-15,6.10255e+06,363
0.00066,0,1,3.31024e-322,2.22045e-15,6.10255e+06,363
0.00068,1.58101e-322,1,6.62048e-322,2.10942e-15,6.10255e+06,363
0.0007,2.47033e-323,1,3.50787e-322,9.99201e-16,6.10255e+06,363
0.00072,0,1,6.66989e-322,1.33227e-15,6.10255e+06,363
0.00074,0,1,4.5454e-322,1.11022e-15,6.10255e+06,363
0.00076,0,1,6.52167e-322,1.44329e-15,6.10255e+06,363
0.00078,0,1,8.54734e-322,1.33227e-15,6.10255e+06,363
0.0008,0,1,1.16599e-321,7.77156e-16,6.10255e+06,363
0.00082,0,1,1.15117e-321,1.22125e-15,6.10255e+06,363
0.00084,0,1,1.13141e-321,1.44329e-15,6.10255e+06,363
0.00086,0,1,1.35868e-321,1.22125e-15,6.10255e+06,363
0.00088,2.47033e-323,1,1.13141e-321,1.44329e-15,6.10255e+06,363
0.0009,0,1,1.36856e-321,1.66533e-15,6.10255e+06,363
0.00092,0,1,1.99603e-321,1.66533e-15,6.10255e+06,363
0.00094,0,1,2.50491e-321,2.22045e-15,6.10255e+06,363
0.00096,0,1,2.54444e-321,2.22045e-15,6.10255e+06,363
0.00098,0,1,2.49009e-321,1.9984e-15,6.10255e+06,363
0.001,0,1,2.50985e-321,1.88738e-15,6.10255e+06,363
0.00102,0,1,2.55926e-321,2.22045e-15,6.10255e+06,363
0.00104,0,1,2.53456e-321,2.10942e-15,6.10255e+06,363
0.00106,0,1,2.56914e-321,1.55431e-15,6.10255e+06,363
0.00108,9.88131e-324,1,2.65313e-321,1.11022e-15,6.10255e+06,363
0.0011,1.23516e-322,1,2.66301e-321,9.99201e-16,6.10255e+06,363
0.00112,1.28457e-322,1,3.07309e-321,4.44089e-16,6.10255e+06,363
0.00114,0,1,3.16696e-321,9.99201e-16,6.10255e+06,363
0.00116,1.63042e-322,1,3.16696e-321,1.22125e-15,6.10255e+06,363
0.00118,0,1,3.19166e-321,7.77156e-16,6.10255e+06,363
0.0012,0,1,3.23613e-321,6.66134e-16,6.10255e+06,363
0.00122,1.38338e-322,1,3.13732e-321,6.66134e-16,6.10255e+06,363
0.00124,0,1,3.24601e-321,9.99201e-16,6.10255e+06,363
0.00126,0,1,3.17684e-321,7.77156e-16,6.10255e+06,363
0.00128,1.5316e-322,1,3.13732e-321,9.99201e-16,6.10255e+06,363
0.0013,0,1,3.24107e-321,8.88178e-16,6.10255e+06,363
0.00132,0,1,3.11261e-321,9.99201e-16,6.10255e+06,363
0.00134,0,1,3.21143e-321,8.88178e-16,6.10255e+06,363
0.00136,0,1,3.11755e-321,6.66134e-16,6.10255e+06,363
0.00138,0,1,3.24107e-321,8.88178e-16,6.10255e+06,363
0.0014,0,1,4.90607e-321,3.33067e-16,6.10255e+06,363
0.00142,0,1,4.86753e-320,6.66134e-16,6.10255e+06,363
0.00144,0,1,1.42969e-318,3.33067e-16,6.10255e+06,363
0.00146,0,1,4.46388e-317,5.55112e-16,6.10255e+06,363
0.00148,1.4822e-322,1,1.39034e-315,2.22045e-16,6.10255e+06,363
0.0015,1.63042e-322,1,4.30976e-314,3.33067e-16,6.10255e+06,363
0.00152,1.4822e-322,1,1.32944e-312,9.99201e-16,6.10255e+06,363
0.00154,0,1,4.08101e-311,6.66134e-16,6.10255e+06,363
0.00156,9.88131e-324,1,1.24663e-309,0,6.10255e+06,363
0.00158,2.82606e-321,1,3.78947e-308,1.11022e-16,6.10255e+06,363
0.0016,8.12886e-320,1,1.14625e-306,2.22045e-16,6.10255e+06,363
0.00162,2.71163e-318,1,3.45017e-305,3.33067e-16,6.10255e+06,363
0.00164,9.0947e-317,1,1.03336e-303,3.33067e-16,6.10255e+06,363
0.00166,3.03596e-315,1,3.07972e-302,2.22045e-16,6.10255e+06,363
0.00168,1.00846e-313,1,9.13293e-301,0,6.10255e+06,363
0.0017,3.33327e-312,1,2.69491e-299,1.11022e-16,6.10255e+06,363
0.00172,1.09629e-310,1,7.91237e-298,0,6.10255e+06,363
0.00174,3.58769e-309,1,2.31149e-296,0,6.10255e+06,363
0.00176,1.16825e-307,1,6.71888e-295,0,6.10255e+06,363
0.00178,3.7851e-306,1,1.94318e-293,4.44089e-16,6.10255e+06,363
0.0018,1.22022e-304,1,5.59158e-292,8.88178e-16,6.10255e+06,363
0.00182,3.91387e-303,1,1.60087e-290,6.66134e-16,6.10255e+06,363
0.00184,1.24905e-301,1,4.56008e-289,8.88178e-16,6.10255e+06,363
0.00186,3.96597e-300,1,1.29234e-287,8.88178e-16,6.10255e+06,363
0.00188,1.25288e-298,1,3.64388e-286,7.77156e-16,6.10255e+06,363
0.0019,3.9378e-297,1,1.02218e-284,8.88178e-16,6.10255e+06,363
0.00192,1.23133e-295,1,2.85273e-283,7.77156e-16,6.10255e+06,363
0.00194,3.83058e-294,1,7.92062e-282,6.66134e-16,6.10255e+06,363
0.00196,1.18555e-292,1,2.18784e-280,4.44089e-16,6.10255e+06,363
0.00198,3.65031e-291,1,6.01205e-279,3.33067e-16,6.10255e+06,363
0.002,1.11812e-289,1,1.64353e-277,5.55112e-16,6.10255e+06,363
0.00202,3.40715e-288,1,4.46961e-276,0,6.10255e+06,363
0.00204,1.03283e-286,1,1.2092e-274,7.77156e-16,6.10255e+06,363
0.00206,5.67541e-286,1,6.27709e-274,5.55112e-16,6.10255e+06,363
0.00208,9.34294e-284,1,8.71215e-272,3.33067e-16,6.10255e+06,363
0.0021,2.78795e-282,1,2.32014e-270,2.22045e-16,6.10255e+06,363
0.00212,8.27551e-281,1,6.14627e-269,0,6.10255e+06,363
0.00214,2.44345e-279,1,1.61961e-267,0,6.10255e+06,363
0.00216,7.17636e-278,1,4.24526e-266,0,6.10255e+06,363
0.00218,2.09648e-276,1,1.10685e-264,2.22045e-16,6.10255e+06,363
0.0022,6.09193e-275,1,2.87046e-263,3.33067e-16,6.10255e+06,363
0.00222,1.76071e-273,1,7.40444e-262,0,6.10255e+06,363
0.00224,5.06158e-272,1,1.89977e-260,0,6.10255e+06,363
0.00226,1.44723e-270,1,4.84811e-259,0,6.10255e+06,363
0.00228,4.11566e-269,1,1.23055e-257,0,6.10255e+06,363
0.0023,1.16407e-267,1,3.10653e-256,0,6.10255e+06,363
0.00232,3.27456e-266,1,7.79999e-255,0,6.10255e+06,363
0.00234,9.16118e-265,1,1.94781e-253,0,6.10255e+06,363
0.00236,2.54898e-263,1,4.83759e-252,0,6.10255e+06,363
0.00238,7.05328e-262,1,1.1949e-250,0,6.10255e+06,363
0.0024,1.94096e-260,1,2.93529e-249,0,6.10255e+06,363
0.00242,5.31175e-259,1,7.17094e-248,0,6.10255e+06,363
0.00244,1.44558e-257,1,1.74222e-246,0,6.10255e+06,363
0.00246,3.91225e-256,1,4.20941e-245,0,6.10255e+06,363
0.00248,1.05288e-254,1,1.01141e-243,0,6.10255e+06,363
0.0025,2.8177e-253,1,2.41664e-242,0,6.10255e+06,363
0.00252,7.49829e-252,1,5.74209e-241,0,6.10255e+06,363
0.00254,1.98416e-250,1,1.35672e-239,0,6.10255e+06,363
0.00256,5.22068e-249,1,3.18765e-238,0,6.10255e+06,363
0.00258,1.36586e-247,1,7.44733e-237,0,6.10255e+06,363
0.0026,3.5531e-246,1,1.73011e-235,0,6.10255e+06,363
0.00262,9.19011e-245,1,3.9965e-234,0,6.10255e+06,363
0.00264,2.3634e-243,1,9.17942e-233,1.11022e-16,6.10255e+06,363
0.00266,6.04296e-242,1,2.09638e-231,0,6.10255e+06,363
0.00268,1.53621e-240,1,4.76035e-230,0,6.10255e+06,363
0.0027,3.88264e-239,1,1.07476e-228,6.66134e-16,6.10255e+06,363
0.00272,9.75608e-238,1,2.41258e-227,5.55112e-16,6.10255e+06,363
0.00274,2.43716e-236,1,5.38445e-226,1.11022e-16,6.10255e+06,363
0.00276,6.05265e-235,1,1.19477e-224,0,6.10255e+06,363
0.00278,1.49435e-233,1,2.63571e-223,1.11022e-16,6.10255e+06,363
0.0028,3.66768e-232,1,5.78069e-222,1.11022e-16,6.10255e+06,363
0.00282,8.94866e-231,1,1.26043e-220,0,6.10255e+06,363
0.00284,2.17041e-229,1,2.73217e-219,5.55112e-16,6.10255e+06,363
0.00286,5.2328e-228,1,5.88761e-218,0,6.10255e+06,363
0.00288,1.25408e-226,1,1.26126e-216,0,6.10255e+06,363
0.0029,2.9875e-225,1,2.68592e-215,0,6.10255e+06,363
0.00292,7.0741e-224,1,5.68591e-214,0,6.10255e+06,363
0.00294,1.66497e-222,1,1.19651e-212,2.22045e-16,6.10255e+06,363
0.00296,3.89498e-221,1,2.50284e-211,0,6.10255e+06,363
0.00298,9.05642e-220,1,5.20404e-210,0,6.10255e+06,363
0.003,2.09292e-218,1,1.07555e-208,0,6.10255e+06,363
0.00302,4.80711e-217,1,2.20953e-207,1.11022e-16,6.10255e+06,363
0.00304,1.09734e-215,1,4.51161e-206,6.66134e-16,6.10255e+06,363
0.00306,2.48951e-214,1,9.15633e-205,4.44089e-16,6.10255e+06,363
0.00308,5.61296e-213,1,1.84697e-203,6.66134e-16,6.10255e+06,363
0.0031,1.25767e-211,1,3.70287e-202,5.55112e-16,6.10255e+06,363
0.00312,2.80047e-210,1,7.37814e-201,5.55112e-16,6.10255e+06,363
0.00314,6.19687e-209,1,1.46109e-199,7.77156e-16,6.10255e+06,363
0.00316,1.36264e-207,1,2.87554e-198,6.66134e-16,6.10255e+06,363
0.00318,2.97748e-206,1,5.62427e-197,7.77156e-16,6.10255e+06,363
0.0032,6.46492e-205,1,1.09322e-195,5.55112e-16,6.10255e+06,363
0.00322,1.39481e-203,1,2.1117e-194,5.55112e-16,6.10255e+06,363
0.00324,2.99018e-202,1,4.05351e-193,2.22045e-16,6.10255e+06,363
0.00326,6.36937e-201,1,7.7321e-192,5.55112e-16,6.10255e+06,363
0.00328,1.34804e-199,1,1.46561e-190,3.33067e-16,6.10255e+06,363
0.0033,2.83471e-198,1,2.7605e-189,1.11022e-16,6.10255e+06,363
0.00332,5.92245e-197,1,5.16644e-188,1.11022e-16,6.10255e+06,363
0.00334,1.22934e-195,1,9.60778e-187,0,6.10255e+06,363
0.00336,2.53518e-194,1,1.7753e-185,7.77156e-16,6.10255e+06,363
0.00338,5.194e-193,1,3.2593e-184,2.22045e-16,6.10255e+06,363
0.0034,1.05716e-191,1,5.94532e-183,1.11022e-16,6.10255e+06,363
0.00342,2.13755e-190,1,1.07749e-181,2.22045e-16,6.10255e+06,363
0.00344,4.29353e-189,1,1.9401e-180,0,6.10255e+06,363
0.00346,8.56699e-188,1,3.47057e-179,2.22045e-16,6.10255e+06,363
0.00348,1.69803e-186,1,6.16784e-178,3.33067e-16,6.10255e+06,363
0.0035,3.34313e-185,1,1.08895e-176,4.44089e-16,6.10255e+06,363
0.00352,6.53799e-184,1,1.90993e-175,0,6.10255e+06,363
0.00354,1.27001e-182,1,3.32772e-174,5.55112e-16,6.10255e+06,363
0.00356,2.45034e-181,1,5.75953e-173,4.44089e-16,6.10255e+06,363
0.00358,4.69564e-180,1,9.90211e-172,0,6.10255e+06,363
0.0036,8.93719e-179,1,1.69105e-170,1.11022e-16,6.10255e+06,363
0.00362,1.6894e-177,1,2.86855e-169,0,6.10255e+06,363
0.00364,3.17161e-176,1,4.83319e-168,3.33067e-16,6.10255e+06,363
0.00366,5.91328e-175,1,8.08831e-167,8.88178e-16,6.10255e+06,363
0.00368,1.09489e-173,1,1.34439e-165,4.44089e-16,6.10255e+06,363
0.0037,2.01322e-172,1,2.21932e-164,3.33067e-16,6.10255e+06,363
0.00372,3.67604e-171,1,3.6386e-163,7.77156e-16,6.10255e+06,363
0.00374,6.66541e-170,1,5.92452e-162,3.33067e-16,6.10255e+06,363
0.00376,1.2001e-168,1,9.57999e-161,2.22045e-16,6.10255e+06,363
0.00378,2.14557e-167,1,1.53836e-159,9.99201e-16,6.10255e+06,363
0.0038,3.8088e-166,1,2.45312e-158,4.44089e-16,6.10255e+06,363
0.00382,6.71339e-165,1,3.88448e-157,6.66134e-16,6.10255e+06,363
0.00384,1.17488e-163,1,6.10788e-156,4.44089e-16,6.10255e+06,363
0.00386,2.0414e-162,1,9.53623e-155,6.66134e-16,6.10255e+06,363
0.00388,3.52157e-161,1,1.47835e-153,6.66134e-16,6.10255e+06,363
0.0039,6.03121e-160,1,2.27553e-152,1.22125e-15,6.10255e+06,363
0.00392,1.02546e-158,1,3.47756e-151,9.99201e-16,6.10255e+06,363
0.00394,1.73089e-157,1,5.27644e-150,3.33067e-16,6.10255e+06,363
0.00396,2.9003e-156,1,7.9482e-149,1.11022e-15,6.10255e+06,363
0.00398,4.82419e-155,1,1.18862e-147,1.22125e-15,6.10255e+06,363
0.004,7.96532e-154,1,1.76461e-146,1.55431e-15,6.10255e+06,363
0.00402,1.30547e-152,1,2.60061e-145,8.88178e-16,6.10255e+06,363
0.00404,2.12373e-151,1,3.80454e-144,1.44329e-15,6.10255e+06,363
0.00406,3.42918e-150,1,5.52483e-143,1.33227e-15,6.10255e+06,363
0.00408,5.49573e-149,1,7.96358e-142,6.66134e-16,6.10255e+06,363
0.0041,8.74161e-148,1,1.13935e-140,3.33067e-16,6.10255e+06,363
0.00412,3.47652e-147,1,4.29745e-140,3.33067e-16,6.10255e+06,363
0.00414,2.16204e-145,1,2.28017e-138,9.99201e-16,6.10255e+06,363
0.00416,3.36158e-144,1,3.18931e-137,6.66134e-16,6.10255e+06,363
0.00418,5.18679e-143,1,4.42714e-136,1.11022e-15,6.10255e+06,363
0.0042,7.94178e-142,1,6.09858e-135,5.55112e-16,6.10255e+06,363
0.00422,1.20666e-140,1,8.33678e-134,6.66134e-16,6.10255e+06,363
0.00424,1.81924e-139,1,1.13088e-132,0,6.10255e+06,363
0.00426,2.72153e-138,1,1.52216e-131,4.44089e-16,6.10255e+06,363
0.00428,4.03966e-137,1,2.03293e-130,0,6.10255e+06,363
0.0043,5.94934e-136,1,2.69388e-129,3.33067e-16,6.10255e+06,363
0.00432,8.69303e-135,1,3.54172e-128,1.11022e-15,6.10255e+06,363
0.00434,1.26019e-133,1,4.61967e-127,9.99201e-16,6.10255e+06,363
0.00436,1.81239e-132,1,5.97795e-126,8.88178e-16,6.10255e+06,363
0.00438,2.58582e-131,1,7.67396e-125,4.44089e-16,6.10255e+06,363
0.0044,3.65988e-130,1,9.77225e-124,3.33067e-16,6.10255e+06,363
0.00442,5.13852e-129,1,1.23441e-122,0,6.10255e+06,363
0.00444,7.15647e-128,1,1.54666e-121,4.44089e-16,6.10255e+06,363
0.00446,2.66261e-127,1,5.45802e-121,4.44089e-16,6.10255e+06,363
0.00448,1.35465e-125,1,2.36923e-119,6.66134e-16,6.10255e+06,363
0.0045,1.84103e-124,1,2.8963e-118,1.11022e-15,6.10255e+06,363
0.00452,2.48156e-123,1,3.51136e-117,1.66533e-15,6.10255e+06,363
0.00454,3.31741e-122,1,4.22166e-116,1.88738e-15,6.10255e+06,363
0.00456,4.39814e-121,1,5.03323e-115,1.9984e-15,6.10255e+06,363
0.00458,5.78254e-120,1,5.95039e-114,8.88178e-16,6.10255e+06,363
0.0046,7.53931e-119,1,6.97525e-113,2.22045e-16,6.10255e+06,363
0.00462,9.74747e-118,1,8.10718e-112,5.55112e-16,6.10255e+06,363
0.00464,1.24963e-116,1,9.34231e-111,8.88178e-16,6.10255e+06,363
0.00466,1.5885e-115,1,1.06731e-109,9.99201e-16,6.10255e+06,363
0.00468,2.00212e-114,1,1.20882e-108,9.99201e-16,6.10255e+06,363
0.0047,2.50192e-113,1,1.3572e-107,8.88178e-16,6.10255e+06,363
0.00472,3.09971e-112,1,1.51048e-106,8.88178e-16,6.10255e+06,363
0.00474,3.80728e-111,1,1.6663e-105,6.66134e-16,6.10255e+06,363
0.00476,4.63594e-110,1,1.82196e-104,9.99201e-16,6.10255e+06,363
0.00478,5.59594e-109,1,1.97446e-103,8.88178e-16,6.10255e+06,363
0.0048,6.6958e-108,1,2.12059e-102,8.88178e-16,6.10255e+06,363.001
0.00482,7.94162e-107,1,2.25707e-101,1.22125e-15,6.10255e+06,363.001
0.00484,9.33628e-106,1,2.38061e-100,1.9984e-15,6.10255e+06,363.001
0.00486,1.08788e-104,1,2.48807e-99,2.22045e-15,6.10255e+06,363.001
0.00488,1.25634e-103,1,2.5766e-98,1.9984e-15,6.10255e+06,363.001
0.0049,1.43794e-102,1,2.64373e-97,1.55431e-15,6.10255e+06,363.001
0.00492,1.63102e-101,1,2.68749e-96,9.99201e-16,6.10255e+06,363.001
0.00494,1.83335e-100,1,2.70654e-95,1.55431e-15,6.10255e+06,363.001
0.00496,2.04211e-99,1,2.70018e-94,1.44329e-15,6.10255e+06,363.001
0.00498,2.25394e-98,1,2.66846e-93,1.44329e-15,6.10255e+06,363.001
0.005,2.465e-97,1,2.61211e-92,1.22125e-15,6.10255e+06,363.001
0.00502,2.67104e-96,1,2.53256e-91,7.77156e-16,6.10255e+06,363.001
0.00504,2.86759e-95,1,2.43186e-90,1.33227e-15,6.10255e+06,363.001
0.00506,3.05003e-94,1,2.31263e-89,1.44329e-15,6.10255e+06,363.001
0.00508,3.21383e-93,1,2.17787e-88,7.77156e-16,6.10255e+06,363.001
0.0051,3.3547e-92,1,2.03093e-87,0,6.10255e+06,363.001
0.00512,1.08001e-91,1,6.17898e-87,1.11022e-16,6.10255e+06,363.001
0.00514,3.55279e-90,1,1.7144e-85,6.66134e-16,6.10255e+06,363.001
0.00516,3.60423e-89,1,1.55173e-84,5.55112e-16,6.10255e+06,363.001
0.00518,3.62148e-88,1,1.39042e-83,1.11022e-15,6.10255e+06,363.001
0.0052,3.60386e-87,1,1.23332e-82,1.11022e-15,6.10255e+06,363.001
0.00522,3.55171e-86,1,1.08287e-81,2.22045e-16,6.10255e+06,363.001
0.00524,3.46635e-85,1,9.41059e-81,4.44089e-16,6.10255e+06,363.001
0.00526,3.35006e-84,1,8.09419e-80,4.44089e-16,6.10255e+06,363.001
0.00528,3.20594e-83,1,6.88994e-79,0,6.10255e+06,363.001
0.0053,3.03779e-82,1,5.80381e-78,9.99201e-16,6.10255e+06,363.001
0.00532,2.84997e-81,1,4.83769e-77,2.22045e-16,6.10255e+06,363.001
0.00534,2.64714e-80,1,3.98989e-76,0,6.10255e+06,363.001
0.00536,2.43415e-79,1,3.25575e-75,1.11022e-16,6.10255e+06,363.001
0.00538,2.21579e-78,1,2.62832e-74,2.22045e-16,6.10255e+06,363.001
0.0054,1.99663e-77,1,2.09899e-73,1.11022e-16,6.10255e+06,363.001
0.00542,1.78086e-76,1,1.65814e-72,3.33067e-16,6.10255e+06,363.001
0.00544,1.57218e-75,1,1.29561e-71,0,6.10255e+06,363.001
0.00546,1.3737e-74,1,1.00125e-70,0,6.10255e+06,363.001
0.00548,1.18788e-73,1,7.65228e-70,0,6.10255e+06,363.001
0.0055,1.01654e-72,1,5.78349e-69,0,6.10255e+06,363.001
0.00552,8.6083e-72,1,4.32221e-68,1.22125e-15,6.10255e+06,363.001
0.00554,7.21323e-71,1,3.1938e-67,1.33227e-15,6.10255e+06,363.001
0.00556,5.98049e-70,1,2.33326e-66,3.33067e-16,6.10255e+06,363.001
0.00558,4.90582e-69,1,1.68514e-65,1.66533e-15,6.10255e+06,363.001
0.0056,3.98135e-68,1,1.20309e-64,1.9984e-15,6.10255e+06,363.001
0.00562,3.19643e-67,1,8.49008e-64,2.55351e-15,6.10255e+06,363.001
0.00564,2.53859e-66,1,5.9217e-63,2.44249e-15,6.10255e+06,363.001
0.00566,1.99427e-65,1,4.08195e-62,1.33227e-15,6.10255e+06,363.001
0.00568,1.54958e-64,1,2.78062e-61,1.77636e-15,6.10255e+06,363.001
0.0057,1.19084e-63,1,1.8717e-60,2.10942e-15,6.10255e+06,363.001
0.00572,9.0506e-63,1,1.24485e-59,2.44249e-15,6.10255e+06,363.001
0.00574,6.80233e-62,1,8.17996e-59,1.33227e-15,6.10255e+06,363.001
0.00576,5.05553e-61,1,5.31013e-58,2.10942e-15,6.10255e+06,363.001
0.00578,3.71514e-60,1,3.40523e-57,1.44329e-15,6.10255e+06,363.001
0.0058,2.69933e-59,1,2.15696e-56,1.88738e-15,6.10255e+06,363.001
0.00582,1.93901e-58,1,1.34947e-55,1.22125e-15,6.10255e+06,363.001
0.00584,1.37695e-57,1,8.33825e-55,6.66134e-16,6.10255e+06,363.001
0.00586,9.66583e-57,1,5.08802e-54,4.44089e-16,6.10255e+06,363.001
0.00588,6.7068e-56,1,3.0659e-53,7.77156e-16,6.10255e+06,363.001
0.0059,4.59955e-55,1,1.8242e-52,0,6.10255e+06,363.001
0.00592,3.11752e-54,1,1.07168e-51,0,6.10255e+06,363.002
0.00594,2.08817e-53,1,6.2161e-51,0,6.10255e+06,363.002
0.00596,1.38215e-52,1,3.55964e-50,0,6.10255e+06,363.002
0.00598,9.03948e-52,1,2.01239e-49,0,6.10255e+06,363.002
0.006,5.84117e-51,1,1.12311e-48,0,6.10255e+06,363.002
0.00602,3.72899e-50,1,6.18765e-48,0,6.10255e+06,363.002
0.00604,2.35172e-49,1,3.36525e-47,0,6.10255e+06,363.002
0.00606,1.46504e-48,1,1.80676e-46,4.44089e-16,6.10255e+06,363.002
0.00608,9.0146e-48,1,9.57587e-46,8.88178e-16,6.10255e+06,363.002
0.0061,5.47831e-47,1,5.01037e-45,1.22125e-15,6.10255e+06,363.002
0.00612,3.28786e-46,1,2.58821e-44,7.77156e-16,6.10255e+06,363.002
0.00614,1.94855e-45,1,1.32009e-43,1.22125e-15,6.10255e+06,363.002
0.00616,1.14027e-44,1,6.64852e-43,9.99201e-16,6.10255e+06,363.002
0.00618,6.58812e-44,1,3.30695e-42,1.22125e-15,6.10255e+06,363.002
0.0062,3.75786e-43,1,1.62475e-41,3.33067e-16,6.10255e+06,363.002
0.00622,2.11596e-42,1,7.88666e-41,6.66134e-16,6.10255e+06,363.002
0.00624,1.17604e-41,1,3.78316e-40,7.77156e-16,6.10255e+06,363.002
0.00626,6.45133e-41,1,1.7939e-39,3.33067e-16,6.10255e+06,363.002
0.00628,3.4926e-40,1,8.41142e-39,6.66134e-16,6.10255e+06,363.002
0.0063,1.86588e-39,1,3.90148e-38,1.22125e-15,6.10255e+06,363.002
0.00632,9.83588e-39,1,1.79084e-37,2.44249e-15,6.10255e+06,363.003
0.00634,5.11561e-38,1,8.13844e-37,1.66533e-15,6.10255e+06,363.003
0.00636,2.6248e-37,1,3.6634e-36,2.66454e-15,6.10255e+06,363.003
0.00638,1.32852e-36,1,1.63414e-35,3.55271e-15,6.10255e+06,363.003
0.0064,6.63245e-36,1,7.22686e-35,4.55191e-15,6.10255e+06,363.003
0.00642,3.26565e-35,1,3.16996e-34,3.9968e-15,6.10255e+06,363.003
0.00644,1.58567e-34,1,1.37963e-33,1.9984e-15,6.10255e+06,363.003
0.00646,7.59208e-34,1,5.95947e-33,1.22125e-15,6.10255e+06,363.003
0.00648,3.58401e-33,1,2.5555e-32,2.44249e-15,6.10255e+06,363.003
0.0065,1.668e-32,1,1.08796e-31,1.33227e-15,6.10255e+06,363.003
0.00652,7.65232e-32,1,4.5984e-31,1.22125e-15,6.10255e+06,363.003
0.00654,3.46031e-31,1,1.9293e-30,8.88178e-16,6.10255e+06,363.004
0.00656,1.54211e-30,1,8.03306e-30,1.11022e-16,6.10255e+06,363.004
0.00658,6.77249e-30,1,3.31813e-29,7.77156e-16,6.10255e+06,363.004
0.0066,2.93063e-29,1,1.35908e-28,1.88738e-15,6.10255e+06,363.004
0.00662,1.24942e-28,1,5.51709e-28,1.9984e-15,6.10255e+06,363.004
0.00664,5.2473e-28,1,2.21843e-27,2.77556e-15,6.10255e+06,363.004
0.00666,2.17069e-27,1,8.8308e-27,1.11022e-15,6.10255e+06,363.004
0.00668,8.84385e-27,1,3.47788e-26,7.77156e-16,6.10255e+06,363.004
0.0067,3.54831e-26,1,1.35437e-25,6.66134e-16,6.10255e+06,363.005
0.00672,1.40181e-25,1,5.21232e-25,1.11022e-15,6.10255e+06,363.005
0.00674,5.45261e-25,1,1.98138e-24,9.99201e-16,6.10255e+06,363.005
0.00676,2.08796e-24,1,7.43602e-24,0,6.10255e+06,363.005
0.00678,7.87052e-24,1,2.75398e-23,8.88178e-16,6.10255e+06,363.005
0.0068,2.92018e-23,1,1.00614e-22,9.99201e-16,6.10255e+06,363.005
0.00682,1.06635e-22,1,3.62475e-22,1.22125e-15,6.10255e+06,363.006
0.00684,3.83195e-22,1,1.28727e-21,6.66134e-16,6.10255e+06,363.006
0.00686,1.35493e-21,1,4.50501e-21,1.11022e-16,6.10255e+06,363.006
0.00688,4.71334e-21,1,1.55316e-20,0,6.10255e+06,363.006
0.0069,1.61282e-20,1,5.27354e-20,0,6.10255e+06,363.007
0.00692,5.42777e-20,1,1.76291e-19,6.66134e-16,6.10255e+06,363.007
0.00694,1.79619e-19,1,5.80054e-19,2.22045e-16,6.10255e+06,363.007
0.00696,5.84344e-19,1,1.87788e-18,7.77156e-16,6.10255e+06,363.007
0.00698,1.86805e-18,1,5.97867e-18,1.11022e-15,6.10255e+06,363.008
0.007,5.87096e-18,1,1.87255e-17,2.22045e-16,6.10255e+06,363.008
0.00702,1.8156e-17,1,5.77481e-17,9.99201e-16,6.10255e+06,363.008
0.00704,5.49784e-17,1,1.74484e-16,4.44089e-16,6.10255e+06,363.009
0.00706,1.6775e-16,1,5.31658e-16,2.66454e-15,6.10255e+06,363.009
0.00708,5.27589e-16,1,1.67251e-15,1.29896e-14,6.10255e+06,363.01
0.0071,1.7653e-15,1,5.61216e-15,5.26246e-14,6.10255e+06,363.01
0.00712,6.23664e-15,1,1.99411e-14,1.83631e-13,6.10255e+06,363.011
0.00714,2.23063e-14,1,7.18636e-14,6.40932e-13,6.10255e+06,363.011
0.00716,7.8564e-14,1,2.55228e-13,2.18592e-12,6.10255e+06,363.012
0.00718,2.69809e-13,1,8.84112e-13,7.23788e-12,6.10255e+06,363.013
0.0072,9.00832e-13,1,2.97767e-12,2.32921e-11,6.10255e+06,363.015
0.00722,2.92122e-12,1,9.74039e-12,7.28789e-11,6.10255e+06,363.018
0.00724,9.19952e-12,1,3.09415e-11,2.21683e-10,6.10255e+06,363.022
0.00726,2.81332e-11,1,9.5441e-11,6.55554e-10,6.10255e+06,363.029
0.00728,8.35419e-11,1,2.85845e-10,1.88453e-09,6.10255e+06,363.041
0.0073,2.40879e-10,1,8.31195e-10,5.2662e-09,6.10255e+06,363.061
0.00732,6.74347e-10,1,2.34653e-09,1.43042e-08,6.10255e+06,363.092
0.00734,1.83286e-09,1,6.43089e-09,3.7764e-08,6.10255e+06,363.143
0.00736,4.83622e-09,1,1.71082e-08,9.68956e-08,6.10255e+06,363.225
0.00738,1.23872e-08,1,4.4176e-08,2.41604e-07,6.10255e+06,363.354
0.0074,3.07944e-08,0.999999,1.10704e-07,5.8536e-07,6.10255e+06,363.554
0.00742,7.42892e-08,0.999998,2.6919e-07,1.37782e-06,6.10255e+06,363.859
0.00744,1.73873e-07,0.999996,6.35016e-07,3.1501e-06,6.10255e+06,364.319
0.00746,3.94681e-07,0.999991,1.45282e-06,6.99349e-06,6.10255e+06,365
0.00748,8.68532e-07,0.999981,3.22235e-06,1.5071e-05,6.10255e+06,365.991
0.0075,1.85187e-06,0.99996,6.92564e-06,3.15118e-05,6.10255e+06,367.407
0.00752,3.82325e-06,0.999918,1.44151e-05,6.38905e-05,6.10255e+06,369.392
0.00754,7.63675e-06,0.999838,2.90369e-05,0.000125531,6.10255e+06,372.117
0.00756,1.47459e-05,0.99969,5.6563e-05,0.000238841,6.10255e+06,375.774
0.00758,2.75009e-05,0.999426,0.000106475,0.000439746,6.10255e+06,380.568
0.0076,4.95017e-05,0.998974,0.000193564,0.000783021,6.10255e+06,386.697
0.00762,8.59569e-05,0.998226,0.000339699,0.0013479,6.10255e+06,394.333
0.00764,0.000143976,0.997037,0.0005755,0.00224307,6.10255e+06,403.602
0.00766,0.000232718,0.995216,0.0009416,0.00360996,6.10255e+06,414.568
0.00768,0.000363353,0.992524,0.00148926,0.00562378,6.10255e+06,427.236
0.0077,0.000548846,0.988679,0.00228028,0.00849213,6.10255e+06,441.555
0.00772,0.000803636,0.983358,0.00338635,0.0124519,6.10255e+06,457.432
0.00774,0.00114331,0.976203,0.00488819,0.0177659,6.10255e+06,474.757
0.00776,0.00158437,0.966822,0.00687473,0.0247191,6.10255e+06,493.41
0.00778,0.0021441,0.954797,0.00944255,0.0336168,6.10255e+06,513.274
0.0078,0.00284051,0.939682,0.0126955,0.0447822,6.10255e+06,534.241
0.00782,0.00369239,0.921009,0.0167441,0.0585547,6.10255e+06,556.201
0.00784,0.00471918,0.898291,0.0217046,0.0752852,6.10255e+06,579.037
0.00786,0.00530433,0.885261,0.0245639,0.0848703,6.10255e+06,590.741
0.00788,0.00737578,0.83877,0.0348348,0.11902,6.10255e+06,626.734
0.0079,0.00817905,0.820621,0.0388685,0.132331,6.10255e+06,638.933
0.00792,0.0109517,0.757623,0.052954,0.178471,6.10255e+06,675.627
0.00794,0.0131103,0.70831,0.0640531,0.214527,6.10255e+06,699.704
0.00796,0.0155108,0.653291,0.0764949,0.254704,6.10255e+06,722.964
0.00798,0.01813,0.593117,0.0901567,0.298596,6.10255e+06,744.934
0.008,0.020924,0.528818,0.1048,0.345458,6.10255e+06,765.17
0.00802,0.0238272,0.461938,0.120062,0.394173,6.10255e+06,783.318
0.00804,0.0267539,0.394477,0.135466,0.443303,6.10255e+06,799.182
0.00806,0.0296068,0.328717,0.15047,0.491207,6.10255e+06,812.76
0.00808,0.0322884,0.266939,0.16453,0.536243,6.10255e+06,824.228
0.0081,0.0347158,0.211098,0.177185,0.577001,6.10255e+06,833.894
0.00812,0.0368315,0.162554,0.18812,0.612495,6.10255e+06,842.119
0.00814,0.0386095,0.121935,0.197198,0.642258,6.10255e+06,849.24
0.00816,0.0400536,0.0891656,0.204449,0.666332,6.10255e+06,855.528
0.00818,0.0411906,0.0636211,0.210033,0.685155,6.10255e+06,861.17
0.0082,0.0416563,0.0532634,0.212272,0.692808,6.10255e+06,863.786
0.00822,0.0427119,0.0301972,0.217174,0.709917,6.10255e+06,870.914
0.00824,0.0429693,0.0247152,0.218311,0.714004,6.10255e+06,873.063
0.00826,0.0435315,0.0131175,0.22065,0.722701,6.10255e+06,878.862
0.00828,0.0437755,0.0083738,0.221557,0.726294,6.10255e+06,882.201
0.0083,0.0439475,0.00523524,0.22212,0.728697,6.10255e+06,885.135
0.00832,0.0440684,0.00320627,0.222453,0.730273,6.10255e+06,887.686
0.00834,0.0441537,0.00192414,0.222635,0.731287,6.10255e+06,889.879
0.00836,0.0442142,0.00113226,0.222723,0.73193,6.10255e+06,891.745
0.00838,0.0442569,0.000669715,0.222753,0.73232,6.10255e+06,893.295
0.0084,0.0442886,0.000389072,0.222755,0.732567,6.10255e+06,894.592
0.00842,0.0443131,0.000214815,0.222743,0.732729,6.10255e+06,895.688
0.00844,0.0443318,0.000116133,0.222723,0.732829,6.10255e+06,896.587
0.00846,0.0443462,6.14805e-05,0.222702,0.73289,6.10255e+06,897.318
0.00848,0.0443575,3.18698e-05,0.222682,0.732928,6.10255e+06,897.908
0.0085,0.0443664,1.61753e-05,0.222665,0.732953,6.10255e+06,898.38
0.00852,0.0443735,8.03765e-06,0.22265,0.732968,6.10255e+06,898.755
0.00854,0.0443765,5.62098e-06,0.222644,0.732974,6.10255e+06,898.911
0.00856,0.0443837,1.86211e-06,0.222629,0.732986,6.10255e+06,899.28
0.00858,0.0443857,1.27481e-06,0.222625,0.732988,6.10255e+06,899.375
0.0086,0.0443902,3.96149e-07,0.222616,0.732994,6.10255e+06,899.595
0.00862,0.0443925,1.76957e-07,0.222612,0.732996,6.10255e+06,899.7
0.00864,0.0443942,7.73721e-08,0.222608,0.732997,6.10255e+06,899.779
0.00866,0.0443956,3.31134e-08,0.222606,0.732998,6.10255e+06,899.839
0.00868,0.0443967,1.38714e-08,0.222604,0.732999,6.10255e+06,899.883
0.0087,0.0443975,5.68763e-09,0.222603,0.732999,6.10255e+06,899.916
0.00872,0.0443981,2.28265e-09,0.222602,0.733,6.10255e+06,899.94
0.00874,0.0443986,8.96709e-10,0.222602,0.733,6.10255e+06,899.957
0.00876,0.044399,3.44816e-10,0.222601,0.733,6.10255e+06,899.97
0.00878,0.0443993,1.29808e-10,0.222601,0.733,6.10255e+06,899.979
0.0088,0.0443995,4.78587e-11,0.222601,0.733,6.10255e+06,899.985
0.00882,0.0443996,1.85568e-11,0.2226,0.733,6.10255e+06,899.99
0.00884,0.0443997,7.17966e-12,0.2226,0.733,6.10255e+06,899.993
0.00886,0.0443998,2.4947e-12,0.2226,0.733,6.10255e+06,899.995
0.00888,0.0443998,1.45768e-12,0.2226,0.733,6.10255e+06,899.996
0.0089,0.0443999,2.81643e-13,0.2226,0.733,6.10255e+06,899.998
0.00892,0.0443999,1.61129e-13,0.2226,0.733,6.10255e+06,899.998
0.00894,0.0444,2.93129e-14,0.2226,0.733,6.10255e+06,899.999
0.00896,0.0444,9.24715e-15,0.2226,0.733,6.10255e+06,899.999
0.00898,0.0444,2.92548e-15,0.2226,0.733,6.10255e+06,900
0.009,0.0444,9.5534e-16,0.2226,0.733,6.10255e+06,900
0.00902,0.0444,3.27905e-16,0.2226,0.733,6.10255e+06,900
0.00904,0.0444,1.16517e-16,0.2226,0.733,6.10255e+06,900
0.00906,0.0444,4.18554e-17,0.2226,0.733,6.10255e+06,900
0.00908,0.0444,1.49856e-17,0.2226,0.733,6.10255e+06,900
0.0091,0.0444,5.31418e-18,0.2226,0.733,6.10255e+06,900
0.00912,0.0444,1.86199e-18,0.2226,0.733,6.10255e+06,900
0.00914,0.0444,6.44062e-19,0.2226,0.733,6.10255e+06,900
0.00916,0.0444,2.19883e-19,0.2226,0.733,6.10255e+06,900
0.00918,0.0444,7.40917e-20,0.2226,0.733,6.10255e+06,900
0.0092,0.0444,2.46438e-20,0.2226,0.733,6.10255e+06,900
0.00922,0.0444,1.4144e-20,0.2226,0.733,6.10255e+06,900
0.00924,0.0444,2.62329e-21,0.2226,0.733,6.10255e+06,900
0.00926,0.0444,8.39756e-22,0.2226,0.733,6.10255e+06,900
0.00928,0.0444,2.6547e-22,0.2226,0.733,6.10255e+06,900
0.0093,0.0444,8.28849e-23,0.2226,0.733,6.10255e+06,900
0.00932,0.0444,2.55607e-23,0.2226,0.733,6.10255e+06,900
0.00934,0.0444,7.78652e-24,0.2226,0.733,6.10255e+06,900
0.00936,0.0444,2.34327e-24,0.2226,0.733,6.10255e+06,900
0.00938,0.0444,6.96687e-25,0.2226,0.733,6.10255e+06,900
0.0094,0.0444,2.04655e-25,0.2226,0.733,6.10255e+06,900
0.00942,0.0444,5.94027e-26,0.2226,0.733,6.10255e+06,900
0.00944,0.0444,1.70378e-26,0.2226,0.733,6.10255e+06,900
0.00946,0.0444,4.8292e-27,0.2226,0.733,6.10255e+06,900
0.00948,0.0444,1.35274e-27,0.2226,0.733,6.10255e+06,900
0.0095,0.0444,3.74508e-28,0.2226,0.733,6.10255e+06,900
0.00952,0.0444,1.02479e-28,0.2226,0.733,6.10255e+06,900
0.00954,0.0444,2.77184e-29,0.2226,0.733,6.10255e+06,900
0.00956,0.0444,1.43532e-29,0.2226,0.733,6.10255e+06,900
0.00958,0.0444,1.95881e-30,0.2226,0.733,6.10255e+06,900
0.0096,0.0444,5.11835e-31,0.2226,0.733,6.10255e+06,900
0.00962,0.0444,1.32226e-31,0.2226,0.733,6.10255e+06,900
0.00964,0.0444,3.37734e-32,0.2226,0.733,6.10255e+06,900
0.00966,0.0444,8.52951e-33,0.2226,0.733,6.10255e+06,900
0.00968,0.0444,2.13004e-33,0.2226,0.733,6.10255e+06,900
0.0097,0.0444,5.26002e-34,0.2226,0.733,6.10255e+06,900
0.00972,0.0444,1.28453e-34,0.2226,0.733,6.10255e+06,900
0.00974,0.0444,3.10229e-35,0.2226,0.733,6.10255e+06,900
0.00976,0.0444,7.41007e-36,0.2226,0.733,6.10255e+06,900
0.00978,0.0444,1.7506e-36,0.2226,0.733,6.10255e+06,900
0.0098,0.0444,4.09074e-37,0.2226,0.733,6.10255e+06,900
0.00982,0.0444,9.45556e-38,0.2226,0.733,6.10255e+06,900