/*--------------------------------*- C++ -*----------------------------------*\
| =========                 |                                                 |
| \\      /  F ield         | OpenFOAM: The Open Source CFD Toolbox           |
|  \\    /   O peration     | Version:  4.x                                   |
|   \\  /    A nd           | Web:      www.OpenFOAM.org                      |
|    \\/     M anipulation  |                                                 |
\*---------------------------------------------------------------------------*/
FoamFile
{
    version     2.0;
    format      ascii;
    class       volScalarField;
    location    "0";
    object      H2O2;
}
// * * * * * * * * * * * * * * * * * * * * * * * * * * * * * * * * * * * * * //

dimensions      [0 0 0 0 0 0 0];

internalField   nonuniform List<scalar> 
500
(
4.62648e-20
5.56894e-20
6.51141e-20
8.05742e-20
1.02848e-19
1.25123e-19
1.60741e-19
2.13384e-19
2.66027e-19
3.48033e-19
4.7245e-19
5.96867e-19
7.85538e-19
1.07959e-18
1.37363e-18
1.80739e-18
2.50234e-18
3.1973e-18
4.19373e-18
5.83619e-18
7.47865e-18
9.76576e-18
1.36476e-17
1.75293e-17
2.27744e-17
3.19486e-17
4.11228e-17
5.31398e-17
7.48222e-17
9.65046e-17
1.2401e-16
1.75254e-16
2.26499e-16
2.89388e-16
4.10499e-16
5.31609e-16
6.75236e-16
9.61471e-16
1.24771e-15
1.57533e-15
2.25182e-15
2.92831e-15
3.67467e-15
5.27348e-15
6.87228e-15
8.57016e-15
1.23488e-14
1.61274e-14
1.99841e-14
2.89146e-14
3.7845e-14
4.67754e-14
6.76971e-14
8.88033e-14
1.0991e-13
1.58484e-13
2.08366e-13
2.58248e-13
3.70987e-13
4.88879e-13
6.0677e-13
8.68347e-13
1.14697e-12
1.42559e-12
2.03229e-12
2.69078e-12
3.34927e-12
4.75591e-12
6.31219e-12
7.86846e-12
1.11286e-11
1.48066e-11
1.84847e-11
2.60375e-11
3.473e-11
4.34225e-11
6.09132e-11
8.14564e-11
1.02e-10
1.42487e-10
1.91037e-10
2.39586e-10
3.33262e-10
4.47997e-10
5.62732e-10
7.79366e-10
1.0505e-09
1.32164e-09
1.82237e-09
2.46308e-09
3.1038e-09
4.26052e-09
5.77447e-09
7.28841e-09
9.95886e-09
1.35357e-08
1.71126e-08
2.32733e-08
3.17226e-08
4.01719e-08
5.43728e-08
7.43254e-08
9.4278e-08
1.26978e-07
1.74069e-07
2.21161e-07
2.9635e-07
4.07387e-07
5.18425e-07
6.90955e-07
9.52307e-07
1.21366e-06
1.60825e-06
2.22134e-06
2.83443e-06
3.73184e-06
5.16076e-06
6.58969e-06
8.61015e-06
1.18981e-05
1.5186e-05
1.9363e-05
2.57389e-05
3.51105e-05
4.68826e-05
6.30334e-05
8.39603e-05
0.000113671
0.000151971
0.000199437
0.000256523
0.000319813
0.000383358
0.000438338
0.00047734
0.000495548
0.000493675
0.000476981
0.000450966
0.000419292
0.000385332
0.000351294
0.000318402
0.000287536
0.000258446
0.000230902
0.000206556
0.00018398
0.00016301
0.000144881
0.000128806
0.0001147
0.000103179
9.28625e-05
8.3867e-05
7.68884e-05
7.07614e-05
6.55985e-05
6.16716e-05
5.82522e-05
5.54194e-05
5.32112e-05
5.1253e-05
4.95832e-05
4.81611e-05
4.68342e-05
4.56124e-05
4.44867e-05
4.33804e-05
4.2274e-05
4.11838e-05
4.00976e-05
3.90114e-05
3.7933e-05
3.68569e-05
3.57808e-05
3.47326e-05
3.3694e-05
3.26554e-05
3.1664e-05
3.06916e-05
2.97191e-05
2.8804e-05
2.79156e-05
2.70271e-05
2.61976e-05
2.53996e-05
2.46016e-05
2.38588e-05
2.31495e-05
2.24402e-05
2.17796e-05
2.11527e-05
2.05258e-05
1.99402e-05
1.93872e-05
1.88342e-05
1.83156e-05
1.78275e-05
1.73395e-05
1.68796e-05
1.64481e-05
1.60165e-05
1.56079e-05
1.52253e-05
1.48426e-05
1.44784e-05
1.41379e-05
1.37974e-05
1.34717e-05
1.31676e-05
1.28635e-05
1.25713e-05
1.22986e-05
1.2026e-05
1.17628e-05
1.15175e-05
1.12721e-05
1.10343e-05
1.08127e-05
1.05911e-05
1.03755e-05
1.01746e-05
9.9738e-06
9.77764e-06
9.59499e-06
9.41233e-06
9.23332e-06
9.06668e-06
8.90004e-06
8.73618e-06
8.58369e-06
8.4312e-06
8.28081e-06
8.14087e-06
8.00093e-06
7.86251e-06
7.73374e-06
7.60497e-06
7.47726e-06
7.35847e-06
7.23968e-06
7.12157e-06
7.01173e-06
6.90188e-06
6.7924e-06
6.69059e-06
6.58878e-06
6.48709e-06
6.39253e-06
6.29798e-06
6.20343e-06
6.11533e-06
6.02733e-06
5.93933e-06
5.85701e-06
5.77496e-06
5.69292e-06
5.61587e-06
5.53922e-06
5.46258e-06
5.39035e-06
5.31865e-06
5.24694e-06
5.17912e-06
5.11192e-06
5.04472e-06
4.98096e-06
4.91789e-06
4.85482e-06
4.7948e-06
4.73552e-06
4.67624e-06
4.61966e-06
4.56387e-06
4.50809e-06
4.45469e-06
4.40212e-06
4.34956e-06
4.29911e-06
4.24952e-06
4.19993e-06
4.15222e-06
4.10539e-06
4.05856e-06
4.0134e-06
3.96914e-06
3.92487e-06
3.88209e-06
3.84021e-06
3.79833e-06
3.75778e-06
3.71814e-06
3.6785e-06
3.64004e-06
3.6025e-06
3.56497e-06
3.52849e-06
3.49295e-06
3.45742e-06
3.42677e-06
3.40101e-06
3.37525e-06
3.34949e-06
3.32373e-06
3.29796e-06
3.2722e-06
3.24644e-06
3.22068e-06
3.19492e-06
3.16916e-06
3.1434e-06
3.11764e-06
3.09188e-06
3.06612e-06
3.04036e-06
3.0146e-06
2.98884e-06
2.96308e-06
2.93731e-06
2.91155e-06
2.88579e-06
2.86003e-06
2.83427e-06
2.80851e-06
2.78275e-06
2.75699e-06
2.73123e-06
2.70547e-06
2.67971e-06
2.65738e-06
2.63977e-06
2.62215e-06
2.60453e-06
2.58692e-06
2.5693e-06
2.55169e-06
2.53407e-06
2.51645e-06
2.49884e-06
2.48122e-06
2.4636e-06
2.44599e-06
2.42837e-06
2.41076e-06
2.39314e-06
2.37552e-06
2.35791e-06
2.34029e-06
2.32267e-06
2.30506e-06
2.28744e-06
2.26983e-06
2.25221e-06
2.23459e-06
2.21698e-06
2.19936e-06
2.18174e-06
2.16413e-06
2.14651e-06
2.13144e-06
2.12124e-06
2.11103e-06
2.10083e-06
2.09063e-06
2.08042e-06
2.07022e-06
2.06001e-06
2.04981e-06
2.0396e-06
2.0294e-06
2.01919e-06
2.00899e-06
1.99879e-06
1.98858e-06
1.97838e-06
1.96817e-06
1.95797e-06
1.94776e-06
1.93756e-06
1.92735e-06
1.91715e-06
1.90695e-06
1.89674e-06
1.88654e-06
1.87633e-06
1.86613e-06
1.85592e-06
1.84572e-06
1.83551e-06
1.82531e-06
1.81511e-06
1.8049e-06
1.7947e-06
1.78449e-06
1.77429e-06
1.76408e-06
1.75388e-06
1.74367e-06
1.73347e-06
1.72327e-06
1.71306e-06
1.70286e-06
1.69265e-06
1.68245e-06
1.67224e-06
1.66204e-06
1.65183e-06
1.64163e-06
1.63142e-06
1.62122e-06
1.61102e-06
1.60081e-06
1.59061e-06
1.5804e-06
1.5702e-06
1.55999e-06
1.54979e-06
1.53958e-06
1.52938e-06
1.51993e-06
1.51377e-06
1.50761e-06
1.50145e-06
1.49529e-06
1.48913e-06
1.48297e-06
1.47681e-06
1.47065e-06
1.46449e-06
1.45833e-06
1.45216e-06
1.446e-06
1.43984e-06
1.43368e-06
1.42752e-06
1.42136e-06
1.4152e-06
1.40904e-06
1.40288e-06
1.39672e-06
1.39056e-06
1.3844e-06
1.37824e-06
1.37207e-06
1.36591e-06
1.35975e-06
1.35359e-06
1.34743e-06
1.34127e-06
1.33511e-06
1.32895e-06
1.32279e-06
1.31663e-06
1.31047e-06
1.30431e-06
1.29814e-06
1.29198e-06
1.28582e-06
1.27966e-06
1.2735e-06
1.26734e-06
1.26118e-06
1.25502e-06
1.24886e-06
1.2427e-06
1.23654e-06
1.23038e-06
1.22421e-06
1.21805e-06
1.21189e-06
1.20573e-06
1.19957e-06
1.19341e-06
1.18725e-06
1.18109e-06
1.17493e-06
1.16877e-06
1.16261e-06
1.15645e-06
1.15035e-06
1.14635e-06
1.14234e-06
1.13834e-06
1.13434e-06
1.13033e-06
1.12633e-06
1.12233e-06
1.11832e-06
1.11432e-06
1.11031e-06
1.10631e-06
1.10231e-06
1.0983e-06
1.0943e-06
1.09029e-06
1.08629e-06
1.08229e-06
1.07828e-06
1.07428e-06
)
;

boundaryField
{
    inlet
    {
        type            fixedValue;
        value           uniform 0;
    }
    outlet
    {
        type            zeroGradient;
    }
    wall
    {
        type            empty;
    }
}


// ************************************************************************* //
