/*--------------------------------*- C++ -*----------------------------------*\
| =========                 |                                                 |
| \\      /  F ield         | OpenFOAM: The Open Source CFD Toolbox           |
|  \\    /   O peration     | Version:  4.x                                   |
|   \\  /    A nd           | Web:      www.OpenFOAM.org                      |
|    \\/     M anipulation  |                                                 |
\*---------------------------------------------------------------------------*/
FoamFile
{
    version     2.0;
    format      ascii;
    class       volScalarField;
    location    "0";
    object      HO2;
}
// * * * * * * * * * * * * * * * * * * * * * * * * * * * * * * * * * * * * * //

dimensions      [0 0 0 0 0 0 0];

internalField   nonuniform List<scalar> 
500
(
1.08116e-17
1.08956e-17
1.09795e-17
1.10968e-17
1.12517e-17
1.14066e-17
1.16227e-17
1.19168e-17
1.22109e-17
1.26178e-17
1.31876e-17
1.37575e-17
1.45364e-17
1.56582e-17
1.678e-17
1.82913e-17
2.05308e-17
2.27703e-17
2.57388e-17
3.02696e-17
3.48004e-17
4.0701e-17
4.99902e-17
5.92794e-17
7.11477e-17
9.045e-17
1.09752e-16
1.33907e-16
1.74558e-16
2.1521e-16
2.64943e-16
3.51698e-16
4.38453e-16
5.42002e-16
7.29517e-16
9.17032e-16
1.13491e-15
1.5451e-15
1.95529e-15
2.41819e-15
3.32541e-15
4.23263e-15
5.22465e-15
7.25115e-15
9.27765e-15
1.14196e-14
1.59861e-14
2.05526e-14
2.5207e-14
3.55755e-14
4.5944e-14
5.63126e-14
7.98061e-14
1.03501e-13
1.27197e-13
1.80247e-13
2.34695e-13
2.89143e-13
4.09431e-13
5.35115e-13
6.60799e-13
9.34454e-13
1.22566e-12
1.51687e-12
2.1411e-12
2.81791e-12
3.49471e-12
4.92159e-12
6.49848e-12
8.07537e-12
1.13422e-11
1.50235e-11
1.87048e-11
2.61929e-11
3.48007e-11
4.34084e-11
6.05865e-11
8.07381e-11
1.0089e-10
1.40317e-10
1.87538e-10
2.34758e-10
3.25276e-10
4.35998e-10
5.46721e-10
7.54526e-10
1.01426e-09
1.27399e-09
1.75093e-09
2.36032e-09
2.96971e-09
4.06381e-09
5.49349e-09
6.92316e-09
9.43107e-09
1.27841e-08
1.61371e-08
2.18795e-08
2.97382e-08
3.75969e-08
5.07263e-08
6.91262e-08
8.75262e-08
1.17488e-07
1.60502e-07
2.03516e-07
2.7172e-07
3.72062e-07
4.72403e-07
6.27178e-07
8.60578e-07
1.09398e-06
1.44388e-06
1.98485e-06
2.52582e-06
3.31353e-06
4.5625e-06
5.81146e-06
7.57769e-06
1.04522e-05
1.33268e-05
1.70149e-05
2.27153e-05
3.12603e-05
4.21728e-05
5.7497e-05
7.80403e-05
0.000108449
0.000148852
0.000200065
0.000262105
0.000329144
0.000391408
0.000437517
0.000459303
0.000454937
0.000430634
0.000396403
0.000359507
0.000324237
0.000292808
0.000265276
0.000241681
0.000222002
0.000204462
0.000188731
0.000175749
0.000163914
0.000153114
0.00014376
0.000135287
0.000127574
0.000120765
0.000114373
0.000108437
0.000103212
9.8308e-05
9.37708e-05
8.97692e-05
8.60223e-05
8.25798e-05
7.95438e-05
7.67073e-05
7.41188e-05
7.18299e-05
6.96927e-05
6.77505e-05
6.61218e-05
6.45558e-05
6.29897e-05
6.17018e-05
6.04821e-05
5.92625e-05
5.82344e-05
5.72627e-05
5.6291e-05
5.54516e-05
5.4658e-05
5.38645e-05
5.31634e-05
5.24998e-05
5.18361e-05
5.12382e-05
5.0671e-05
5.01038e-05
4.95843e-05
4.90904e-05
4.85965e-05
4.81379e-05
4.77008e-05
4.72638e-05
4.68534e-05
4.64614e-05
4.60694e-05
4.56977e-05
4.5342e-05
4.49864e-05
4.46465e-05
4.43206e-05
4.39947e-05
4.36812e-05
4.338e-05
4.30789e-05
4.27875e-05
4.25072e-05
4.22269e-05
4.19544e-05
4.16918e-05
4.14292e-05
4.11728e-05
4.09254e-05
4.0678e-05
4.04357e-05
4.02014e-05
3.99672e-05
3.9737e-05
3.95143e-05
3.92916e-05
3.90721e-05
3.88595e-05
3.86469e-05
3.84369e-05
3.82332e-05
3.80295e-05
3.78279e-05
3.76322e-05
3.74365e-05
3.72423e-05
3.70537e-05
3.68651e-05
3.66778e-05
3.64955e-05
3.63133e-05
3.61321e-05
3.59556e-05
3.57792e-05
3.56035e-05
3.54323e-05
3.52611e-05
3.50905e-05
3.49241e-05
3.47577e-05
3.45917e-05
3.44297e-05
3.42678e-05
3.4106e-05
3.39481e-05
3.37902e-05
3.36324e-05
3.34783e-05
3.33242e-05
3.31701e-05
3.30195e-05
3.28689e-05
3.27183e-05
3.25708e-05
3.24235e-05
3.22762e-05
3.21318e-05
3.19875e-05
3.18433e-05
3.17017e-05
3.15604e-05
3.14192e-05
3.12803e-05
3.11417e-05
3.10032e-05
3.08669e-05
3.0731e-05
3.05951e-05
3.04613e-05
3.03279e-05
3.01946e-05
3.00631e-05
2.99322e-05
2.98012e-05
2.96721e-05
2.95435e-05
2.94149e-05
2.9288e-05
2.91617e-05
2.90354e-05
2.89106e-05
2.87865e-05
2.86624e-05
2.85398e-05
2.84179e-05
2.8296e-05
2.81755e-05
2.80557e-05
2.7936e-05
2.78175e-05
2.76999e-05
2.75823e-05
2.74659e-05
2.73505e-05
2.7235e-05
2.71208e-05
2.70076e-05
2.68944e-05
2.67899e-05
2.6694e-05
2.65981e-05
2.65022e-05
2.64063e-05
2.63104e-05
2.62146e-05
2.61187e-05
2.60228e-05
2.59269e-05
2.5831e-05
2.57351e-05
2.56392e-05
2.55433e-05
2.54474e-05
2.53515e-05
2.52556e-05
2.51597e-05
2.50639e-05
2.4968e-05
2.48721e-05
2.47762e-05
2.46803e-05
2.45844e-05
2.44885e-05
2.43926e-05
2.42967e-05
2.42008e-05
2.41049e-05
2.4009e-05
2.3918e-05
2.38337e-05
2.37493e-05
2.3665e-05
2.35806e-05
2.34963e-05
2.34119e-05
2.33276e-05
2.32432e-05
2.31589e-05
2.30745e-05
2.29902e-05
2.29058e-05
2.28215e-05
2.27372e-05
2.26528e-05
2.25685e-05
2.24841e-05
2.23998e-05
2.23154e-05
2.22311e-05
2.21467e-05
2.20624e-05
2.1978e-05
2.18937e-05
2.18093e-05
2.1725e-05
2.16406e-05
2.15563e-05
2.14719e-05
2.13946e-05
2.13308e-05
2.12669e-05
2.1203e-05
2.11391e-05
2.10753e-05
2.10114e-05
2.09475e-05
2.08837e-05
2.08198e-05
2.07559e-05
2.06921e-05
2.06282e-05
2.05643e-05
2.05004e-05
2.04366e-05
2.03727e-05
2.03088e-05
2.0245e-05
2.01811e-05
2.01172e-05
2.00534e-05
1.99895e-05
1.99256e-05
1.98618e-05
1.97979e-05
1.9734e-05
1.96701e-05
1.96063e-05
1.95424e-05
1.94785e-05
1.94147e-05
1.93508e-05
1.92869e-05
1.92231e-05
1.91592e-05
1.90953e-05
1.90314e-05
1.89676e-05
1.89037e-05
1.88398e-05
1.8776e-05
1.87121e-05
1.86482e-05
1.85844e-05
1.85205e-05
1.84566e-05
1.83927e-05
1.83289e-05
1.8265e-05
1.82011e-05
1.81373e-05
1.80734e-05
1.80095e-05
1.79457e-05
1.78818e-05
1.78179e-05
1.77541e-05
1.76902e-05
1.76263e-05
1.7565e-05
1.7515e-05
1.7465e-05
1.74149e-05
1.73649e-05
1.73148e-05
1.72648e-05
1.72147e-05
1.71647e-05
1.71146e-05
1.70646e-05
1.70146e-05
1.69645e-05
1.69145e-05
1.68644e-05
1.68144e-05
1.67643e-05
1.67143e-05
1.66643e-05
1.66142e-05
1.65642e-05
1.65141e-05
1.64641e-05
1.6414e-05
1.6364e-05
1.6314e-05
1.62639e-05
1.62139e-05
1.61638e-05
1.61138e-05
1.60637e-05
1.60137e-05
1.59636e-05
1.59136e-05
1.58636e-05
1.58135e-05
1.57635e-05
1.57134e-05
1.56634e-05
1.56133e-05
1.55633e-05
1.55133e-05
1.54632e-05
1.54132e-05
1.53631e-05
1.53131e-05
1.5263e-05
1.5213e-05
1.5163e-05
1.51129e-05
1.50629e-05
1.50128e-05
1.49628e-05
1.49127e-05
1.48627e-05
1.48127e-05
1.47626e-05
1.47126e-05
1.46625e-05
1.46125e-05
1.45628e-05
1.45238e-05
1.44848e-05
1.44459e-05
1.44069e-05
1.4368e-05
1.4329e-05
1.429e-05
1.42511e-05
1.42121e-05
1.41731e-05
1.41342e-05
1.40952e-05
1.40562e-05
1.40173e-05
1.39783e-05
1.39393e-05
1.39004e-05
1.38614e-05
1.38224e-05
)
;

boundaryField
{
    inlet
    {
        type            fixedValue;
        value           uniform 0;
    }
    outlet
    {
        type            zeroGradient;
    }
    wall
    {
        type            empty;
    }
}


// ************************************************************************* //
