/*--------------------------------*- C++ -*----------------------------------*\
| =========                 |                                                 |
| \\      /  F ield         | OpenFOAM: The Open Source CFD Toolbox           |
|  \\    /   O peration     | Version:  4.x                                   |
|   \\  /    A nd           | Web:      www.OpenFOAM.org                      |
|    \\/     M anipulation  |                                                 |
\*---------------------------------------------------------------------------*/
FoamFile
{
    version     2.0;
    format      ascii;
    class       volScalarField;
    location    "0";
    object      OH;
}
// * * * * * * * * * * * * * * * * * * * * * * * * * * * * * * * * * * * * * //

dimensions      [0 0 0 0 0 0 0];

internalField   nonuniform List<scalar> 
500
(
1.72776e-20
2.00186e-20
2.27596e-20
2.66284e-20
3.17707e-20
3.69129e-20
4.40261e-20
5.36539e-20
6.32817e-20
7.63402e-20
9.43542e-20
1.12368e-19
1.36323e-19
1.70019e-19
2.03716e-19
2.47634e-19
3.10661e-19
3.73689e-19
4.5417e-19
5.72055e-19
6.89939e-19
8.37361e-19
1.05785e-18
1.27833e-18
1.54825e-18
1.96063e-18
2.37301e-18
2.86697e-18
3.63828e-18
4.40959e-18
5.31313e-18
6.75579e-18
8.19844e-18
9.8504e-18
1.25488e-17
1.52472e-17
1.8266e-17
2.33136e-17
2.83611e-17
3.38748e-17
4.33175e-17
5.27602e-17
6.28259e-17
8.04934e-17
9.81609e-17
1.16528e-16
1.49594e-16
1.82659e-16
2.16162e-16
2.78074e-16
3.39986e-16
4.01897e-16
5.17092e-16
6.33107e-16
7.49121e-16
9.62182e-16
1.17986e-15
1.39755e-15
1.79238e-15
2.20174e-15
2.6111e-15
3.34526e-15
4.11796e-15
4.89066e-15
6.26356e-15
7.73123e-15
9.1989e-15
1.17906e-14
1.4607e-14
1.74235e-14
2.23908e-14
2.78857e-14
3.33805e-14
4.31286e-14
5.41276e-14
6.51266e-14
8.49356e-14
1.07801e-13
1.30667e-13
1.72893e-13
2.22947e-13
2.73e-13
3.68535e-13
4.85295e-13
6.02055e-13
8.32893e-13
1.12475e-12
1.4166e-12
2.01109e-12
2.79011e-12
3.56913e-12
5.18567e-12
7.38202e-12
9.57837e-12
1.41595e-11
2.06096e-11
2.70598e-11
4.04177e-11
5.98939e-11
7.93701e-11
1.19033e-10
1.78881e-10
2.3873e-10
3.57748e-10
5.43569e-10
7.2939e-10
1.08852e-09
1.66876e-09
2.249e-09
3.33546e-09
5.1531e-09
6.97073e-09
1.02632e-08
1.59743e-08
2.16854e-08
3.17022e-08
4.97684e-08
6.78346e-08
9.86737e-08
1.56881e-07
2.15088e-07
3.03297e-07
4.65712e-07
7.56054e-07
1.17638e-06
1.86287e-06
3.00562e-06
5.23627e-06
9.12273e-06
1.58079e-05
2.82365e-05
4.94906e-05
8.37563e-05
0.000133189
0.000197357
0.000270668
0.000344122
0.000409827
0.000464699
0.000507809
0.000541768
0.000571282
0.000600431
0.000633482
0.00067358
0.00072004
0.000784075
0.000859879
0.000946375
0.00105335
0.00117524
0.00131135
0.00146579
0.00162811
0.00179907
0.0019808
0.00216557
0.00235356
0.00254191
0.00272845
0.00291235
0.00308872
0.00325984
0.00342385
0.00357619
0.00372152
0.00385721
0.00397341
0.00408571
0.00419801
0.00428903
0.00437483
0.00446063
0.00452897
0.00459217
0.00465537
0.00470492
0.00474973
0.00479454
0.00482902
0.00485933
0.00488964
0.00491229
0.00493137
0.00495045
0.00496392
0.00497439
0.00498486
0.00499124
0.00499513
0.00499902
0.00499993
0.00499878
0.00499763
0.00499432
0.00498931
0.00498429
0.00497771
0.00496972
0.00496173
0.0049526
0.00494232
0.00493203
0.00492091
0.00490885
0.00489679
0.00488412
0.00487068
0.00485725
0.00484337
0.00482887
0.00481437
0.00479956
0.00478425
0.00476894
0.00475341
0.00473749
0.00472156
0.00470549
0.00468911
0.00467274
0.00465627
0.00463957
0.00462287
0.00460611
0.00458919
0.00457228
0.00455534
0.00453829
0.00452125
0.0045042
0.0044871
0.00447
0.0044529
0.00443581
0.00441872
0.00440163
0.00438459
0.00436756
0.00435053
0.00433359
0.00431665
0.00429971
0.0042829
0.00426609
0.00424929
0.00423264
0.00421598
0.00419933
0.00418287
0.0041664
0.00414993
0.00413366
0.00411739
0.00410112
0.00408506
0.00406901
0.00405296
0.00403712
0.0040213
0.00400548
0.00398988
0.0039743
0.00395872
0.00394335
0.00392802
0.00391269
0.00389757
0.00388249
0.00386742
0.00385255
0.00383773
0.00382291
0.0038083
0.00379375
0.00377919
0.00376484
0.00375055
0.00373626
0.00372216
0.00370814
0.00369412
0.00368028
0.00366653
0.00365278
0.0036392
0.00362572
0.00361223
0.00359892
0.0035857
0.00357248
0.00355943
0.00354648
0.00353353
0.00352074
0.00350807
0.0034954
0.00348288
0.0034705
0.00345812
0.00344672
0.00343631
0.0034259
0.00341549
0.00340508
0.00339467
0.00338426
0.00337385
0.00336344
0.00335303
0.00334262
0.00333221
0.0033218
0.00331139
0.00330098
0.00329057
0.00328016
0.00326975
0.00325934
0.00324893
0.00323852
0.00322811
0.0032177
0.00320729
0.00319688
0.00318647
0.00317606
0.00316565
0.00315524
0.00314483
0.00313511
0.00312635
0.00311759
0.00310883
0.00310007
0.00309131
0.00308255
0.00307379
0.00306503
0.00305627
0.00304751
0.00303875
0.00302999
0.00302122
0.00301246
0.0030037
0.00299494
0.00298618
0.00297742
0.00296866
0.0029599
0.00295114
0.00294238
0.00293362
0.00292486
0.0029161
0.00290734
0.00289858
0.00288982
0.00288106
0.00287313
0.0028668
0.00286047
0.00285413
0.0028478
0.00284147
0.00283514
0.0028288
0.00282247
0.00281614
0.00280981
0.00280347
0.00279714
0.00279081
0.00278448
0.00277815
0.00277181
0.00276548
0.00275915
0.00275282
0.00274648
0.00274015
0.00273382
0.00272749
0.00272116
0.00271482
0.00270849
0.00270216
0.00269583
0.00268949
0.00268316
0.00267683
0.0026705
0.00266417
0.00265783
0.0026515
0.00264517
0.00263884
0.0026325
0.00262617
0.00261984
0.00261351
0.00260717
0.00260084
0.00259451
0.00258818
0.00258185
0.00257551
0.00256918
0.00256285
0.00255652
0.00255018
0.00254385
0.00253752
0.00253119
0.00252486
0.00251852
0.00251219
0.00250586
0.00249953
0.00249349
0.00248871
0.00248394
0.00247917
0.0024744
0.00246962
0.00246485
0.00246008
0.00245531
0.00245053
0.00244576
0.00244099
0.00243622
0.00243144
0.00242667
0.0024219
0.00241712
0.00241235
0.00240758
0.00240281
0.00239803
0.00239326
0.00238849
0.00238372
0.00237894
0.00237417
0.0023694
0.00236463
0.00235985
0.00235508
0.00235031
0.00234554
0.00234076
0.00233599
0.00233122
0.00232645
0.00232167
0.0023169
0.00231213
0.00230736
0.00230258
0.00229781
0.00229304
0.00228826
0.00228349
0.00227872
0.00227395
0.00226917
0.0022644
0.00225963
0.00225486
0.00225008
0.00224531
0.00224054
0.00223577
0.00223099
0.00222622
0.00222145
0.00221668
0.0022119
0.00220716
0.00220348
0.0021998
0.00219612
0.00219244
0.00218875
0.00218507
0.00218139
0.00217771
0.00217402
0.00217034
0.00216666
0.00216298
0.00215929
0.00215561
0.00215193
0.00214825
0.00214457
0.00214088
0.0021372
)
;

boundaryField
{
    inlet
    {
        type            fixedValue;
        value           uniform 0;
    }
    outlet
    {
        type            zeroGradient;
    }
    wall
    {
        type            empty;
    }
}


// ************************************************************************* //
