x,NH3,C7H16,O2,N2,p,T
0,1.72923e-322,1,3.26501e-203,0,6.10159e+06,363
2e-05,1.43279e-322,1,2.15747e-202,0,6.10159e+06,363
4e-05,6.10171e-321,1,3.85772e-201,2.22045e-16,6.10159e+06,363
6e-05,8.47174e-319,1,1.89823e-199,0,6.10159e+06,363
8e-05,2.25639e-317,1,2.37761e-198,2.22045e-16,6.10159e+06,363
0.0001,5.97787e-316,1,2.92049e-197,3.33067e-16,6.10159e+06,363
0.00012,1.57531e-314,1,3.54695e-196,2.22045e-16,6.10159e+06,363
0.00014,4.12927e-313,1,4.27169e-195,3.33067e-16,6.10159e+06,363.001
0.00016,2.10987e-312,1,1.4783e-194,2.22045e-16,6.10159e+06,363.001
0.00018,2.79206e-310,1,6.06336e-193,0,6.10159e+06,363.001
0.0002,7.20217e-309,1,7.15042e-192,4.44089e-16,6.10159e+06,363.001
0.00022,1.84787e-307,1,8.37613e-191,4.44089e-16,6.10159e+06,363.001
0.00024,4.71566e-306,1,9.74678e-190,3.33067e-16,6.10159e+06,363.001
0.00026,1.19695e-304,1,1.12665e-188,0,6.10159e+06,363.001
0.00028,3.02179e-303,1,1.2937e-187,2.22045e-16,6.10159e+06,363.001
0.0003,7.58762e-302,1,1.47567e-186,1.11022e-16,6.10159e+06,363.001
0.00032,3.79441e-301,1,4.97146e-186,0,6.10159e+06,363.001
0.00034,4.70683e-299,1,1.88209e-184,1.11022e-16,6.10159e+06,363.001
0.00036,1.16279e-297,1,2.10445e-183,2.22045e-16,6.10159e+06,363.001
0.00038,2.85701e-296,1,2.33748e-182,5.55112e-16,6.10159e+06,363.001
0.0004,6.98154e-295,1,2.5791e-181,1.11022e-16,6.10159e+06,363.001
0.00042,1.69675e-293,1,2.82683e-180,3.33067e-16,6.10159e+06,363.002
0.00044,4.10117e-292,1,3.0778e-179,2.22045e-16,6.10159e+06,363.002
0.00046,9.85862e-291,1,3.32882e-178,2.22045e-16,6.10159e+06,363.002
0.00048,2.35689e-289,1,3.57643e-177,3.33067e-16,6.10159e+06,363.002
0.0005,5.60365e-288,1,3.81693e-176,5.55112e-16,6.10159e+06,363.002
0.00052,1.32498e-286,1,4.04656e-175,1.11022e-15,6.10159e+06,363.002
0.00054,3.11565e-285,1,4.2615e-174,1.11022e-15,6.10159e+06,363.002
0.00056,7.28593e-284,1,4.45803e-173,1.66533e-15,6.10159e+06,363.002
0.00058,1.69439e-282,1,4.63261e-172,1.22125e-15,6.10159e+06,363.002
0.0006,3.91861e-281,1,4.78201e-171,1.66533e-15,6.10159e+06,363.002
0.00062,9.01226e-280,1,4.90338e-170,1.55431e-15,6.10159e+06,363.002
0.00064,2.06118e-278,1,4.99436e-169,1.44329e-15,6.10159e+06,363.002
0.00066,4.68783e-277,1,5.05315e-168,1.33227e-15,6.10159e+06,363.003
0.00068,1.06023e-275,1,5.07857e-167,1.44329e-15,6.10159e+06,363.003
0.0007,2.38448e-274,1,5.0701e-166,1.44329e-15,6.10159e+06,363.003
0.00072,5.33275e-273,1,5.0279e-165,1.33227e-15,6.10159e+06,363.003
0.00074,1.18595e-271,1,4.95279e-164,1.22125e-15,6.10159e+06,363.003
0.00076,2.62261e-270,1,4.84624e-163,0,6.10159e+06,363.003
0.00078,5.76703e-269,1,4.71033e-162,0,6.10159e+06,363.003
0.0008,1.261e-267,1,4.54765e-161,1.11022e-16,6.10159e+06,363.003
0.00082,2.74168e-266,1,4.36126e-160,2.22045e-16,6.10159e+06,363.003
0.00084,5.92727e-265,1,4.15455e-159,3.33067e-16,6.10159e+06,363.003
0.00086,1.27416e-263,1,3.93116e-158,1.11022e-16,6.10159e+06,363.003
0.00088,2.72346e-262,1,3.69491e-157,2.22045e-16,6.10159e+06,363.003
0.0009,5.78815e-261,1,3.44961e-156,9.99201e-16,6.10159e+06,363.004
0.00092,1.22314e-259,1,3.19903e-155,8.88178e-16,6.10159e+06,363.004
0.00094,2.56997e-258,1,2.94678e-154,2.22045e-16,6.10159e+06,363.004
0.00096,5.36892e-257,1,2.69623e-153,2.22045e-16,6.10159e+06,363.004
0.00098,1.1152e-255,1,2.45044e-152,3.33067e-16,6.10159e+06,363.004
0.001,2.30311e-254,1,2.21212e-151,5.55112e-16,6.10159e+06,363.004
0.00102,4.72906e-253,1,1.98358e-150,1.22125e-15,6.10159e+06,363.004
0.00104,9.6544e-252,1,1.76671e-149,1.22125e-15,6.10159e+06,363.004
0.00106,1.95958e-250,1,1.56299e-148,1.11022e-15,6.10159e+06,363.004
0.00108,3.95441e-249,1,1.37346e-147,1.11022e-15,6.10159e+06,363.004
0.0011,7.93373e-248,1,1.19881e-146,1.22125e-15,6.10159e+06,363.004
0.00112,1.58251e-246,1,1.03933e-145,9.99201e-16,6.10159e+06,363.004
0.00114,3.13822e-245,1,8.95004e-145,8.88178e-16,6.10159e+06,363.005
0.00116,6.18705e-244,1,7.65533e-144,1.11022e-15,6.10159e+06,363.005
0.00118,1.21267e-242,1,6.50383e-143,9.99201e-16,6.10159e+06,363.005
0.0012,2.36296e-241,1,5.48832e-142,1.22125e-15,6.10159e+06,363.005
0.00122,4.57742e-240,1,4.60017e-141,7.77156e-16,6.10159e+06,363.005
0.00124,8.81514e-239,1,3.82975e-140,8.88178e-16,6.10159e+06,363.005
0.00126,1.68763e-237,1,3.16686e-139,8.88178e-16,6.10159e+06,363.005
0.00128,3.21191e-236,1,2.60104e-138,8.88178e-16,6.10159e+06,363.005
0.0013,6.07685e-235,1,2.12189e-137,1.11022e-15,6.10159e+06,363.005
0.00132,1.14293e-233,1,1.71933e-136,9.99201e-16,6.10159e+06,363.005
0.00134,2.1369e-232,1,1.38373e-135,8.88178e-16,6.10159e+06,363.006
0.00136,3.9716e-231,1,1.10611e-134,6.66134e-16,6.10159e+06,363.006
0.00138,7.33768e-230,1,8.78209e-134,0,6.10159e+06,363.006
0.0014,1.34759e-228,1,6.92551e-133,0,6.10159e+06,363.006
0.00142,2.46016e-227,1,5.42448e-132,0,6.10159e+06,363.006
0.00144,4.46441e-226,1,4.22002e-131,4.44089e-16,6.10159e+06,363.006
0.00146,8.05303e-225,1,3.26077e-130,8.88178e-16,6.10159e+06,363.006
0.00148,1.44392e-223,1,2.5025e-129,8.88178e-16,6.10159e+06,363.006
0.0015,2.57342e-222,1,1.90755e-128,2.22045e-16,6.10159e+06,363.006
0.00152,4.55886e-221,1,1.44419e-127,8.88178e-16,6.10159e+06,363.006
0.00154,8.02742e-220,1,1.08597e-126,8.88178e-16,6.10159e+06,363.006
0.00156,1.40497e-218,1,8.11059e-126,2.22045e-16,6.10159e+06,363.007
0.00158,2.4441e-217,1,6.01633e-125,0,6.10159e+06,363.007
0.0016,4.22604e-216,1,4.43253e-124,1.11022e-15,6.10159e+06,363.007
0.00162,7.26276e-215,1,3.24349e-123,1.11022e-15,6.10159e+06,363.007
0.00164,1.24057e-213,1,2.35728e-122,9.99201e-16,6.10159e+06,363.007
0.00166,2.10612e-212,1,1.70157e-121,4.44089e-16,6.10159e+06,363.007
0.00168,3.55375e-211,1,1.2199e-120,2.22045e-16,6.10159e+06,363.007
0.0017,5.95971e-210,1,8.6863e-120,3.33067e-16,6.10159e+06,363.007
0.00172,9.93331e-209,1,6.14299e-119,2.22045e-16,6.10159e+06,363.007
0.00174,1.64546e-207,1,4.31478e-118,0,6.10159e+06,363.008
0.00176,2.70896e-206,1,3.01003e-117,0,6.10159e+06,363.008
0.00178,4.43233e-205,1,2.08551e-116,2.22045e-16,6.10159e+06,363.008
0.0018,7.2073e-204,1,1.43511e-115,0,6.10159e+06,363.008
0.00182,1.16471e-202,1,9.80817e-115,6.66134e-16,6.10159e+06,363.008
0.00184,1.87053e-201,1,6.65761e-114,5.55112e-16,6.10159e+06,363.008
0.00186,2.98542e-200,1,4.48823e-113,1.11022e-16,6.10159e+06,363.008
0.00188,4.73519e-199,1,3.0051e-112,2.22045e-16,6.10159e+06,363.008
0.0019,7.4637e-198,1,1.99833e-111,0,6.10159e+06,363.008
0.00192,1.1691e-196,1,1.31977e-110,0,6.10159e+06,363.008
0.00194,1.8198e-195,1,8.65672e-110,0,6.10159e+06,363.009
0.00196,2.81492e-194,1,5.63936e-109,2.22045e-16,6.10159e+06,363.009
0.00198,4.32686e-193,1,3.6486e-108,4.44089e-16,6.10159e+06,363.009
0.002,6.60906e-192,1,2.34446e-107,0,6.10159e+06,363.009
0.00202,1.00314e-190,1,1.49616e-106,0,6.10159e+06,363.009
0.00204,1.51297e-189,1,9.48264e-106,4.44089e-16,6.10159e+06,363.009
0.00206,5.86184e-189,1,2.38115e-105,8.88178e-16,6.10159e+06,363.009
0.00208,3.37676e-187,1,3.73148e-104,3.33067e-16,6.10159e+06,363.009
0.0021,4.99675e-186,1,2.31675e-103,1.11022e-16,6.10159e+06,363.009
0.00212,7.3469e-185,1,1.42853e-102,2.22045e-16,6.10159e+06,363.01
0.00214,1.07335e-183,1,8.74809e-102,3.33067e-16,6.10159e+06,363.01
0.00216,1.55812e-182,1,5.32044e-101,3.33067e-16,6.10159e+06,363.01
0.00218,2.24735e-181,1,3.2136e-100,3.33067e-16,6.10159e+06,363.01
0.0022,3.22067e-180,1,1.92772e-99,6.66134e-16,6.10159e+06,363.01
0.00222,4.58591e-179,1,1.14843e-98,8.88178e-16,6.10159e+06,363.01
0.00224,6.48784e-178,1,6.79475e-98,8.88178e-16,6.10159e+06,363.01
0.00226,9.11939e-177,1,3.99252e-97,8.88178e-16,6.10159e+06,363.01
0.00228,1.27355e-175,1,2.32984e-96,3.33067e-16,6.10159e+06,363.01
0.0023,1.76705e-174,1,1.35023e-95,5.55112e-16,6.10159e+06,363.011
0.00232,2.43587e-173,1,7.77128e-95,2.22045e-16,6.10159e+06,363.011
0.00234,3.33602e-172,1,4.44201e-94,7.77156e-16,6.10159e+06,363.011
0.00236,4.53907e-171,1,2.52154e-93,1.11022e-15,6.10159e+06,363.011
0.00238,6.13567e-170,1,1.42152e-92,1.33227e-15,6.10159e+06,363.011
0.0024,8.23965e-169,1,7.95864e-92,9.99201e-16,6.10159e+06,363.011
0.00242,1.09926e-167,1,4.42508e-91,1.44329e-15,6.10159e+06,363.011
0.00244,1.45692e-166,1,2.44343e-90,1.33227e-15,6.10159e+06,363.011
0.00246,1.91824e-165,1,1.33991e-89,9.99201e-16,6.10159e+06,363.012
0.00248,2.509e-164,1,7.297e-89,7.77156e-16,6.10159e+06,363.012
0.0025,3.26001e-163,1,3.94645e-88,1.11022e-16,6.10159e+06,363.012
0.00252,4.2078e-162,1,2.11964e-87,1.11022e-16,6.10159e+06,363.012
0.00254,5.39511e-161,1,1.13059e-86,2.22045e-16,6.10159e+06,363.012
0.00256,6.87149e-160,1,5.98884e-86,2.22045e-16,6.10159e+06,363.012
0.00258,8.69359e-159,1,3.15042e-85,2.22045e-16,6.10159e+06,363.012
0.0026,1.09254e-157,1,1.64582e-84,0,6.10159e+06,363.012
0.00262,1.36384e-156,1,8.5385e-84,0,6.10159e+06,363.013
0.00264,1.6911e-155,1,4.39914e-83,0,6.10159e+06,363.013
0.00266,2.08279e-154,1,2.25081e-82,0,6.10159e+06,363.013
0.00268,2.54792e-153,1,1.14365e-81,2.22045e-16,6.10159e+06,363.013
0.0027,3.0959e-152,1,5.77074e-81,1.11022e-16,6.10159e+06,363.013
0.00272,3.73628e-151,1,2.89168e-80,1.11022e-16,6.10159e+06,363.013
0.00274,4.47854e-150,1,1.43897e-79,5.55112e-16,6.10159e+06,363.013
0.00276,5.33177e-149,1,7.11099e-79,0,6.10159e+06,363.013
0.00278,6.30429e-148,1,3.4897e-78,5.55112e-16,6.10159e+06,363.014
0.0028,7.40329e-147,1,1.70068e-77,7.77156e-16,6.10159e+06,363.014
0.00282,8.63434e-146,1,8.23068e-77,8.88178e-16,6.10159e+06,363.014
0.00284,1.0001e-144,1,3.95569e-76,3.33067e-16,6.10159e+06,363.014
0.00286,1.15041e-143,1,1.88792e-75,2.22045e-16,6.10159e+06,363.014
0.00288,1.31419e-142,1,8.94783e-75,2.22045e-16,6.10159e+06,363.014
0.0029,1.4909e-141,1,4.21137e-74,4.44089e-16,6.10159e+06,363.014
0.00292,1.67963e-140,1,1.96834e-73,1.11022e-16,6.10159e+06,363.014
0.00294,1.87909e-139,1,9.13581e-73,4.44089e-16,6.10159e+06,363.015
0.00296,2.08757e-138,1,4.21078e-72,1.11022e-16,6.10159e+06,363.015
0.00298,2.30296e-137,1,1.92728e-71,3.33067e-16,6.10159e+06,363.015
0.003,2.52275e-136,1,8.75979e-71,0,6.10159e+06,363.015
0.00302,2.74407e-135,1,3.95373e-70,0,6.10159e+06,363.015
0.00304,2.96374e-134,1,1.77209e-69,2.22045e-16,6.10159e+06,363.015
0.00306,3.17835e-133,1,7.88727e-69,2.22045e-16,6.10159e+06,363.015
0.00308,3.38431e-132,1,3.48602e-68,3.33067e-16,6.10159e+06,363.016
0.0031,3.57795e-131,1,1.53e-67,0,6.10159e+06,363.016
0.00312,3.75567e-130,1,6.6683e-67,1.11022e-16,6.10159e+06,363.016
0.00314,3.91398e-129,1,2.886e-66,3.33067e-16,6.10159e+06,363.016
0.00316,4.04965e-128,1,1.24032e-65,3.33067e-16,6.10159e+06,363.016
0.00318,4.15984e-127,1,5.29332e-65,0,6.10159e+06,363.016
0.0032,4.24213e-126,1,2.24324e-64,0,6.10159e+06,363.016
0.00322,4.29469e-125,1,9.44013e-64,1.11022e-16,6.10159e+06,363.016
0.00324,4.31627e-124,1,3.94486e-63,1.11022e-16,6.10159e+06,363.017
0.00326,4.3063e-123,1,1.63696e-62,3.33067e-16,6.10159e+06,363.017
0.00328,4.26492e-122,1,6.74516e-62,0,6.10159e+06,363.017
0.0033,4.19292e-121,1,2.75991e-61,1.11022e-16,6.10159e+06,363.017
0.00332,4.09177e-120,1,1.12136e-60,2.22045e-16,6.10159e+06,363.017
0.00334,3.96357e-119,1,4.52421e-60,2.22045e-16,6.10159e+06,363.017
0.00336,3.81093e-118,1,1.81252e-59,2.22045e-16,6.10159e+06,363.017
0.00338,3.63694e-117,1,7.21056e-59,0,6.10159e+06,363.018
0.0034,3.44501e-116,1,2.84837e-58,1.11022e-16,6.10159e+06,363.018
0.00342,3.2388e-115,1,1.11728e-57,0,6.10159e+06,363.018
0.00344,3.0221e-114,1,4.35182e-57,1.11022e-16,6.10159e+06,363.018
0.00346,2.79868e-113,1,1.68313e-56,5.55112e-16,6.10159e+06,363.018
0.00348,2.57223e-112,1,6.46397e-56,6.66134e-16,6.10159e+06,363.018
0.0035,2.34621e-111,1,2.465e-55,5.55112e-16,6.10159e+06,363.018
0.00352,2.12381e-110,1,9.33405e-55,6.66134e-16,6.10159e+06,363.019
0.00354,1.90786e-109,1,3.50958e-54,3.33067e-16,6.10159e+06,363.019
0.00356,1.70079e-108,1,1.3103e-53,1.22125e-15,6.10159e+06,363.019
0.00358,1.50459e-107,1,4.85757e-53,6.66134e-16,6.10159e+06,363.019
0.0036,1.32081e-106,1,1.78811e-52,4.44089e-16,6.10159e+06,363.019
0.00362,1.15056e-105,1,6.53579e-52,5.55112e-16,6.10159e+06,363.019
0.00364,9.94527e-105,1,2.37207e-51,5.55112e-16,6.10159e+06,363.019
0.00366,8.53005e-104,1,8.54831e-51,8.88178e-16,6.10159e+06,363.02
0.00368,7.25949e-103,1,3.05884e-50,6.66134e-16,6.10159e+06,363.02
0.0037,6.13017e-102,1,1.08681e-49,7.77156e-16,6.10159e+06,363.02
0.00372,5.1362e-101,1,3.83418e-49,1.55431e-15,6.10159e+06,363.02
0.00374,4.26978e-100,1,1.3431e-48,1.11022e-15,6.10159e+06,363.02
0.00376,3.52173e-99,1,4.67157e-48,8.88178e-16,6.10159e+06,363.02
0.00378,2.88194e-98,1,1.61336e-47,1.22125e-15,6.10159e+06,363.021
0.0038,2.33982e-97,1,5.53242e-47,6.66134e-16,6.10159e+06,363.021
0.00382,1.88471e-96,1,1.8837e-46,5.55112e-16,6.10159e+06,363.021
0.00384,1.50611e-95,1,6.36821e-46,7.77156e-16,6.10159e+06,363.021
0.00386,1.19403e-94,1,2.13764e-45,1.44329e-15,6.10159e+06,363.021
0.00388,9.39102e-94,1,7.12456e-45,1.77636e-15,6.10159e+06,363.021
0.0039,7.32719e-93,1,2.3577e-44,1.22125e-15,6.10159e+06,363.021
0.00392,5.6713e-92,1,7.74682e-44,9.99201e-16,6.10159e+06,363.022
0.00394,4.3545e-91,1,2.52733e-43,6.66134e-16,6.10159e+06,363.022
0.00396,3.31662e-90,1,8.18654e-43,9.99201e-16,6.10159e+06,363.022
0.00398,2.50581e-89,1,2.63293e-42,6.66134e-16,6.10159e+06,363.022
0.004,1.87794e-88,1,8.40769e-42,9.99201e-16,6.10159e+06,363.022
0.00402,1.39602e-87,1,2.66569e-41,1.66533e-15,6.10159e+06,363.022
0.00404,1.02935e-86,1,8.39148e-41,1.55431e-15,6.10159e+06,363.022
0.00406,7.52814e-86,1,2.62277e-40,1.22125e-15,6.10159e+06,363.023
0.00408,5.46077e-85,1,8.13902e-40,3.33067e-16,6.10159e+06,363.023
0.0041,3.92872e-84,1,2.50769e-39,3.33067e-16,6.10159e+06,363.023
0.00412,1.05053e-83,1,4.38993e-39,0,6.10159e+06,363.023
0.00414,1.98375e-82,1,2.32991e-38,1.11022e-16,6.10159e+06,363.023
0.00416,1.39219e-81,1,7.02585e-38,2.22045e-16,6.10159e+06,363.023
0.00418,9.68924e-81,1,2.10349e-37,0,6.10159e+06,363.024
0.0042,6.68719e-80,1,6.25264e-37,0,6.10159e+06,363.024
0.00422,4.57663e-79,1,1.84529e-36,0,6.10159e+06,363.024
0.00424,3.10584e-78,1,5.40682e-36,0,6.10159e+06,363.024
0.00426,2.08991e-77,1,1.57288e-35,0,6.10159e+06,363.024
0.00428,1.39435e-76,1,4.54278e-35,3.33067e-16,6.10159e+06,363.024
0.0043,9.22348e-76,1,1.30262e-34,1.55431e-15,6.10159e+06,363.025
0.00432,6.0489e-75,1,3.70838e-34,2.22045e-16,6.10159e+06,363.025
0.00434,3.93274e-74,1,1.04814e-33,1.11022e-16,6.10159e+06,363.025
0.00436,2.53473e-73,1,2.94115e-33,6.66134e-16,6.10159e+06,363.025
0.00438,1.61943e-72,1,8.19369e-33,1.11022e-16,6.10159e+06,363.025
0.0044,1.02557e-71,1,2.26622e-32,2.22045e-16,6.10159e+06,363.025
0.00442,6.43746e-71,1,6.2228e-32,2.22045e-16,6.10159e+06,363.026
0.00444,4.00486e-70,1,1.69639e-31,0,6.10159e+06,363.026
0.00446,9.95546e-70,1,2.79329e-31,2.22045e-16,6.10159e+06,363.026
0.00448,1.50868e-68,1,1.23359e-30,8.88178e-16,6.10159e+06,363.026
0.0045,9.13442e-68,1,3.29055e-30,4.44089e-16,6.10159e+06,363.026
0.00452,5.48e-67,1,8.714e-30,2.22045e-16,6.10159e+06,363.026
0.00454,3.25738e-66,1,2.29094e-29,6.66134e-16,6.10159e+06,363.026
0.00456,1.91828e-65,1,5.97934e-29,7.77156e-16,6.10159e+06,363.027
0.00458,1.11914e-64,1,1.5493e-28,8.88178e-16,6.10159e+06,363.027
0.0046,6.46781e-64,1,3.98528e-28,4.44089e-16,6.10159e+06,363.027
0.00462,3.7025e-63,1,1.0177e-27,8.88178e-16,6.10159e+06,363.027
0.00464,2.09928e-62,1,2.57999e-27,1.22125e-15,6.10159e+06,363.027
0.00466,1.17882e-61,1,6.49306e-27,1.11022e-15,6.10159e+06,363.027
0.00468,6.5554e-61,1,1.62223e-26,9.99201e-16,6.10159e+06,363.028
0.0047,3.60986e-60,1,4.02351e-26,1.33227e-15,6.10159e+06,363.028
0.00472,1.96829e-59,1,9.90659e-26,1.66533e-15,6.10159e+06,363.028
0.00474,1.06259e-58,1,2.42141e-25,9.99201e-16,6.10159e+06,363.028
0.00476,5.67914e-58,1,5.87537e-25,4.44089e-16,6.10159e+06,363.028
0.00478,3.00477e-57,1,1.41521e-24,6.66134e-16,6.10159e+06,363.028
0.0048,1.57369e-56,1,3.38397e-24,1.11022e-16,6.10159e+06,363.029
0.00482,8.1578e-56,1,8.03243e-24,3.33067e-16,6.10159e+06,363.029
0.00484,4.18543e-55,1,1.89269e-23,4.44089e-16,6.10159e+06,363.029
0.00486,2.12515e-54,1,4.42716e-23,4.44089e-16,6.10159e+06,363.029
0.00488,1.0678e-53,1,1.02796e-22,8.88178e-16,6.10159e+06,363.029
0.0049,5.30899e-53,1,2.36939e-22,6.66134e-16,6.10159e+06,363.029
0.00492,2.61169e-52,1,5.42124e-22,6.66134e-16,6.10159e+06,363.03
0.00494,1.27113e-51,1,1.2313e-21,1.11022e-16,6.10159e+06,363.03
0.00496,6.12047e-51,1,2.77604e-21,0,6.10159e+06,363.03
0.00498,2.91528e-50,1,6.21275e-21,2.22045e-16,6.10159e+06,363.03
0.005,1.37355e-49,1,1.38018e-20,3.33067e-16,6.10159e+06,363.03
0.00502,6.40107e-49,1,3.04356e-20,4.44089e-16,6.10159e+06,363.03
0.00504,2.95036e-48,1,6.66215e-20,9.99201e-16,6.10159e+06,363.031
0.00506,1.34488e-47,1,1.44755e-19,6.66134e-16,6.10159e+06,363.031
0.00508,6.06253e-47,1,3.12204e-19,3.33067e-16,6.10159e+06,363.031
0.0051,2.70246e-46,1,6.68381e-19,5.55112e-16,6.10159e+06,363.031
0.00512,5.68173e-46,1,9.75235e-19,6.66134e-16,6.10159e+06,363.031
0.00514,5.19133e-45,1,2.99592e-18,7.77156e-16,6.10159e+06,363.032
0.00516,2.23689e-44,1,6.27257e-18,6.66134e-16,6.10159e+06,363.032
0.00518,9.52909e-44,1,1.30357e-17,1.11022e-16,6.10159e+06,363.032
0.0052,4.01307e-43,1,2.68899e-17,1.11022e-16,6.10159e+06,363.032
0.00522,1.67071e-42,1,5.5057e-17,4.44089e-16,6.10159e+06,363.032
0.00524,6.87549e-42,1,1.11892e-16,3.33067e-16,6.10159e+06,363.032
0.00526,2.79683e-41,1,2.25709e-16,5.55112e-16,6.10159e+06,363.033
0.00528,1.12453e-40,1,4.51916e-16,2.10942e-15,6.10159e+06,363.033
0.0053,4.46886e-40,1,8.98098e-16,4.32987e-15,6.10159e+06,363.033
0.00532,1.75523e-39,1,1.77151e-15,8.77076e-15,6.10159e+06,363.033
0.00534,6.81338e-39,1,3.46829e-15,2.09832e-14,6.10159e+06,363.033
0.00536,2.6138e-38,1,6.73966e-15,4.20775e-14,6.10159e+06,363.033
0.00538,9.9094e-38,1,1.29989e-14,8.29337e-14,6.10159e+06,363.034
0.0054,3.7126e-37,1,2.48841e-14,1.58207e-13,6.10159e+06,363.034
0.00542,1.37453e-36,1,4.72801e-14,2.95985e-13,6.10159e+06,363.034
0.00544,5.02881e-36,1,8.91613e-14,5.49782e-13,6.10159e+06,363.034
0.00546,1.81804e-35,1,1.66883e-13,1.01319e-12,6.10159e+06,363.034
0.00548,6.49478e-35,1,3.10016e-13,1.85219e-12,6.10159e+06,363.034
0.0055,2.29266e-34,1,5.71597e-13,3.35842e-12,6.10159e+06,363.035
0.00552,7.99705e-34,1,1.04599e-12,6.04261e-12,6.10159e+06,363.035
0.00554,2.75632e-33,1,1.89975e-12,1.07928e-11,6.10159e+06,363.035
0.00556,9.38728e-33,1,3.42445e-12,1.91351e-11,6.10159e+06,363.035
0.00558,3.15909e-32,1,6.12651e-12,3.36827e-11,6.10159e+06,363.035
0.0056,1.05051e-31,1,1.08783e-11,5.88579e-11,6.10159e+06,363.035
0.00562,3.45189e-31,1,1.91703e-11,1.02109e-10,6.10159e+06,363.036
0.00564,1.12084e-30,1,3.35288e-11,1.75865e-10,6.10159e+06,363.036
0.00566,3.59637e-30,1,5.82006e-11,3.00714e-10,6.10159e+06,363.036
0.00568,1.14034e-29,1,1.00266e-10,5.10488e-10,6.10159e+06,363.036
0.0057,3.57331e-29,1,1.71435e-10,8.60346e-10,6.10159e+06,363.036
0.00572,1.10659e-28,1,2.9091e-10,1.43951e-09,6.10159e+06,363.037
0.00574,3.38687e-28,1,4.89931e-10,2.39118e-09,6.10159e+06,363.037
0.00576,1.02456e-27,1,8.18886e-10,3.94329e-09,6.10159e+06,363.037
0.00578,3.06352e-27,1,1.3584e-09,6.45589e-09,6.10159e+06,363.038
0.0058,9.05487e-27,1,2.23636e-09,1.04931e-08,6.10159e+06,363.038
0.00582,2.64578e-26,1,3.65401e-09,1.69315e-08,6.10159e+06,363.039
0.00584,7.64314e-26,1,5.9253e-09,2.71228e-08,6.10159e+06,363.039
0.00586,2.18312e-25,1,9.53592e-09,4.31339e-08,6.10159e+06,363.04
0.00588,6.16614e-25,1,1.52309e-08,6.80997e-08,6.10159e+06,363.042
0.0059,1.72238e-24,1,2.41436e-08,1.06736e-07,6.10159e+06,363.043
0.00592,4.75859e-24,1,3.79828e-08,1.6608e-07,6.10159e+06,363.046
0.00594,1.30052e-23,1,5.93033e-08,2.56541e-07,6.10159e+06,363.049
0.00596,3.51647e-23,1,9.18911e-08,3.9339e-07,6.10159e+06,363.053
0.00598,9.40829e-23,0.999999,1.41307e-07,5.98834e-07,6.10159e+06,363.059
0.006,2.49114e-22,0.999999,2.15644e-07,9.0488e-07,6.10159e+06,363.068
0.00602,6.5289e-22,0.999998,3.2657e-07,1.35723e-06,6.10159e+06,363.078
0.00604,1.69398e-21,0.999997,4.90737e-07,2.02052e-06,6.10159e+06,363.093
0.00606,4.35187e-21,0.999996,7.31664e-07,2.98516e-06,6.10159e+06,363.113
0.00608,1.10719e-20,0.999995,1.08217e-06,4.37617e-06,6.10159e+06,363.139
0.0061,2.79009e-20,0.999992,1.58747e-06,6.36417e-06,6.10159e+06,363.173
0.00612,6.96536e-20,0.999989,2.30885e-06,9.17832e-06,6.10159e+06,363.218
0.00614,1.72297e-19,0.999984,3.32787e-06,1.31207e-05,6.10159e+06,363.275
0.00616,4.22391e-19,0.999977,4.7504e-06,1.85797e-05,6.10159e+06,363.349
0.00618,1.02652e-18,0.999967,6.70968e-06,2.60397e-05,6.10159e+06,363.443
0.0062,2.47404e-18,0.999955,9.36604e-06,3.60783e-05,6.10159e+06,363.56
0.00622,5.91774e-18,0.999938,1.29007e-05,4.9343e-05,6.10159e+06,363.705
0.00624,1.40689e-17,0.999916,1.75001e-05,6.64958e-05,6.10159e+06,363.882
0.00626,3.33522e-17,0.999889,2.33293e-05,8.81232e-05,6.10159e+06,364.094
0.00628,7.94214e-17,0.999855,3.05049e-05,0.000114651,6.10159e+06,364.345
0.0063,1.93275e-16,0.999814,3.91119e-05,0.000146415,6.10159e+06,364.641
0.00632,5.00945e-16,0.999766,4.93958e-05,0.000184359,6.10159e+06,364.994
0.00634,1.50277e-15,0.999706,6.23185e-05,0.000231962,6.10159e+06,365.435
0.00636,5.47881e-15,0.999625,7.96374e-05,0.000295524,6.10159e+06,366.006
0.00638,2.21301e-14,0.999517,0.000102749,0.000380055,6.10159e+06,366.736
0.0064,8.98533e-14,0.999378,0.000132775,0.00048958,6.10159e+06,367.65
0.00642,3.58579e-13,0.999198,0.000171598,0.000630767,6.10159e+06,368.788
0.00644,1.38701e-12,0.998966,0.000221603,0.000812121,6.10159e+06,370.197
0.00646,5.17713e-12,0.99867,0.000285851,0.0010445,6.10159e+06,371.933
0.00648,1.86138e-11,0.99829,0.000368243,0.00134174,6.10159e+06,374.06
0.0065,6.43739e-11,0.997805,0.000473705,0.00172126,6.10159e+06,376.651
0.00652,2.13858e-10,0.997187,0.000608429,0.0022049,6.10159e+06,379.786
0.00654,6.81539e-10,0.9964,0.000780155,0.00281989,6.10159e+06,383.548
0.00656,2.08075e-09,0.995401,0.000998514,0.0036,6.10159e+06,388.023
0.00658,6.07796e-09,0.994138,0.00127541,0.00458679,6.10159e+06,393.294
0.0066,1.69672e-08,0.992544,0.00162544,0.00583098,6.10159e+06,399.439
0.00662,4.52245e-08,0.99054,0.00206634,0.00739384,6.10159e+06,406.522
0.00664,1.15016e-07,0.988032,0.00261948,0.00934856,6.10159e+06,414.594
0.00666,2.79013e-07,0.984908,0.00331023,0.0117815,6.10159e+06,423.69
0.00668,6.45631e-07,0.981038,0.00416848,0.0147932,6.10159e+06,433.825
0.0067,1.42565e-06,0.976271,0.00522892,0.0184991,6.10159e+06,445
0.00672,3.00643e-06,0.970435,0.00653133,0.0230302,6.10159e+06,457.202
0.00674,6.06141e-06,0.96334,0.00812082,0.0285329,6.10159e+06,470.405
0.00676,1.17002e-05,0.954772,0.0100479,0.0351688,6.10159e+06,484.581
0.00678,2.16578e-05,0.944496,0.0123685,0.043114,6.10159e+06,499.694
0.0068,3.85152e-05,0.93226,0.0151437,0.0525583,6.10159e+06,515.71
0.00682,6.59311e-05,0.917792,0.0184393,0.0637027,6.10159e+06,532.592
0.00684,0.000108861,0.900808,0.0223254,0.0767575,6.10159e+06,550.297
0.00686,0.000173728,0.881014,0.0268748,0.0919375,6.10159e+06,568.778
0.00688,0.000268523,0.858114,0.0321611,0.109456,6.10159e+06,587.973
0.0069,0.000402789,0.831823,0.0382561,0.129518,6.10159e+06,607.801
0.00692,0.00058749,0.801884,0.0452254,0.152303,6.10159e+06,628.151
0.00694,0.00083473,0.768088,0.0531226,0.177955,6.10159e+06,648.879
0.00696,0.00115731,0.730306,0.0619822,0.206555,6.10159e+06,669.797
0.00698,0.00156813,0.688523,0.0718097,0.238099,6.10159e+06,690.676
0.007,0.00207941,0.64288,0.0825718,0.272469,6.10159e+06,711.247
0.00702,0.00270173,0.593711,0.0941859,0.309401,6.10159e+06,731.211
0.00704,0.003443,0.54158,0.106511,0.348466,6.10159e+06,750.263
0.00706,0.00430734,0.487294,0.119344,0.389054,6.10159e+06,768.115
0.00708,0.00529422,0.431892,0.132424,0.43039,6.10159e+06,784.531
0.0071,0.00639782,0.376596,0.145442,0.471565,6.10159e+06,799.348
0.00712,0.00760714,0.322723,0.158068,0.511602,6.10159e+06,812.497
0.00714,0.00890671,0.27157,0.16998,0.549543,6.10159e+06,824.003
0.00716,0.010278,0.224281,0.180897,0.584544,6.10159e+06,833.974
0.00718,0.0117012,0.181739,0.190608,0.615951,6.10159e+06,842.572
0.0072,0.0131574,0.144494,0.19899,0.643359,6.10159e+06,849.986
0.00722,0.0146294,0.112742,0.206007,0.666621,6.10159e+06,856.406
0.00724,0.0161036,0.0863589,0.211705,0.685832,6.10159e+06,862.001
0.00726,0.0175693,0.0649673,0.216192,0.701271,6.10159e+06,866.911
0.00728,0.0190191,0.048022,0.219612,0.713347,6.10159e+06,871.245
0.0073,0.0204478,0.0348916,0.222128,0.722532,6.10159e+06,875.086
0.00732,0.0218521,0.0249284,0.223905,0.729314,6.10159e+06,878.496
0.00734,0.0232296,0.0175183,0.225095,0.734157,6.10159e+06,881.522
0.00736,0.0245784,0.0121122,0.225834,0.737476,6.10159e+06,884.198
0.00738,0.0258963,0.00824045,0.226235,0.739629,6.10159e+06,886.557
0.0074,0.0271805,0.0055181,0.226392,0.74091,6.10159e+06,888.626
0.00742,0.0284208,0.00367331,0.226371,0.741535,6.10159e+06,890.412
0.00744,0.0296319,0.00238612,0.226243,0.741739,6.10159e+06,891.973
0.00746,0.0307966,0.00153576,0.226042,0.741626,6.10159e+06,893.308
0.00748,0.0319226,0.000966243,0.225799,0.741312,6.10159e+06,894.455
0.0075,0.033001,0.000597762,0.225535,0.740866,6.10159e+06,895.43
0.00752,0.0340289,0.000363774,0.225265,0.740342,6.10159e+06,896.251
0.00754,0.0350034,0.000217776,0.225,0.739779,6.10159e+06,896.939
0.00756,0.0359226,0.000128244,0.224746,0.739203,6.10159e+06,897.512
0.00758,0.0367849,7.42861e-05,0.224507,0.738634,6.10159e+06,897.986
0.0076,0.0375895,4.23286e-05,0.224285,0.738084,6.10159e+06,898.376
0.00762,0.0383361,2.37245e-05,0.224081,0.737559,6.10159e+06,898.695
0.00764,0.0390251,1.3079e-05,0.223896,0.737066,6.10159e+06,898.954
0.00766,0.0396573,7.09173e-06,0.223728,0.736608,6.10159e+06,899.164
0.00768,0.0402343,3.7819e-06,0.223578,0.736184,6.10159e+06,899.334
0.0077,0.0407579,1.98351e-06,0.223444,0.735797,6.10159e+06,899.47
0.00772,0.0412304,1.02308e-06,0.223325,0.735444,6.10159e+06,899.58
0.00774,0.0416544,5.18957e-07,0.22322,0.735125,6.10159e+06,899.667
0.00776,0.0420329,2.5887e-07,0.223128,0.734839,6.10159e+06,899.737
0.00778,0.0423688,1.26986e-07,0.223047,0.734584,6.10159e+06,899.794
0.0078,0.0426652,6.1256e-08,0.222977,0.734357,6.10159e+06,899.839
0.00782,0.0429255,2.90569e-08,0.222917,0.734158,6.10159e+06,899.875
0.00784,0.0431526,1.35537e-08,0.222865,0.733983,6.10159e+06,899.904
0.00786,0.0432548,9.19865e-09,0.222842,0.733903,6.10159e+06,899.916
0.00788,0.0435201,2.80397e-09,0.222783,0.733697,6.10159e+06,899.946
0.0079,0.043596,1.87127e-09,0.222766,0.733638,6.10159e+06,899.954
0.00792,0.0437912,5.42342e-10,0.222724,0.733485,6.10159e+06,899.974
0.00794,0.0438972,2.32576e-10,0.222701,0.733402,6.10159e+06,899.984
0.00796,0.0439868,9.80726e-11,0.222682,0.733331,6.10159e+06,899.992
0.00798,0.0440621,4.06653e-11,0.222666,0.733272,6.10159e+06,899.999
0.008,0.044125,1.65804e-11,0.222653,0.733222,6.10159e+06,900.005
0.00802,0.0441772,6.64754e-12,0.222643,0.73318,6.10159e+06,900.01
0.00804,0.0442204,2.62076e-12,0.222634,0.733145,6.10159e+06,900.013
0.00806,0.044256,1.01602e-12,0.222627,0.733117,6.10159e+06,900.016
0.00808,0.044285,3.87362e-13,0.222622,0.733093,6.10159e+06,900.019
0.0081,0.0443087,1.45257e-13,0.222617,0.733074,6.10159e+06,900.02
0.00812,0.0443278,5.35997e-14,0.222613,0.733059,6.10159e+06,900.022
0.00814,0.0443431,1.94876e-14,0.22261,0.733047,6.10159e+06,900.023
0.00816,0.0443554,7.00533e-15,0.222608,0.733037,6.10159e+06,900.024
0.00818,0.0443652,2.50965e-15,0.222606,0.733029,6.10159e+06,900.024
0.0082,0.0443693,1.50591e-15,0.222605,0.733025,6.10159e+06,900.024
0.00822,0.0443789,3.32754e-16,0.222604,0.733017,6.10159e+06,900.025
0.00824,0.0443815,2.0243e-16,0.222603,0.733015,6.10159e+06,900.025
0.00826,0.0443874,4.56705e-17,0.222602,0.73301,6.10159e+06,900.024
0.00828,0.0443903,1.68042e-17,0.222602,0.733008,6.10159e+06,900.024
0.0083,0.0443926,6.12178e-18,0.222601,0.733006,6.10159e+06,900.024
0.00832,0.0443943,2.20519e-18,0.222601,0.733005,6.10159e+06,900.024
0.00834,0.0443957,7.85077e-19,0.222601,0.733004,6.10159e+06,900.023
0.00836,0.0443968,2.76196e-19,0.222601,0.733003,6.10159e+06,900.023
0.00838,0.0443976,9.60194e-20,0.2226,0.733002,6.10159e+06,900.022
0.0084,0.0443982,3.29883e-20,0.2226,0.733002,6.10159e+06,900.022
0.00842,0.0443986,1.12006e-20,0.2226,0.733001,6.10159e+06,900.022
0.00844,0.044399,3.7587e-21,0.2226,0.733001,6.10159e+06,900.021
0.00846,0.0443993,1.24675e-21,0.2226,0.733001,6.10159e+06,900.021
0.00848,0.0443995,4.0879e-22,0.2226,0.733,6.10159e+06,900.02
0.0085,0.0443996,1.32504e-22,0.2226,0.733,6.10159e+06,900.02
0.00852,0.0443997,4.24617e-23,0.2226,0.733,6.10159e+06,900.019
0.00854,0.0443998,2.39349e-23,0.2226,0.733,6.10159e+06,900.019
0.00856,0.0443998,4.21478e-24,0.2226,0.733,6.10159e+06,900.018
0.00858,0.0443999,2.34918e-24,0.2226,0.733,6.10159e+06,900.018
0.0086,0.0443999,4.00012e-25,0.2226,0.733,6.10159e+06,900.017
0.00862,0.0443999,1.21196e-25,0.2226,0.733,6.10159e+06,900.017
0.00864,0.0444,3.63182e-26,0.2226,0.733,6.10159e+06,900.017
0.00866,0.0444,1.07648e-26,0.2226,0.733,6.10159e+06,900.016
0.00868,0.0444,3.15616e-27,0.2226,0.733,6.10159e+06,900.016
0.0087,0.0444,9.15406e-28,0.2226,0.733,6.10159e+06,900.015
0.00872,0.0444,2.62662e-28,0.2226,0.733,6.10159e+06,900.015
0.00874,0.0444,7.45655e-29,0.2226,0.733,6.10159e+06,900.015
0.00876,0.0444,2.09441e-29,0.2226,0.733,6.10159e+06,900.014
0.00878,0.0444,5.82094e-30,0.2226,0.733,6.10159e+06,900.014
0.0088,0.0444,1.60089e-30,0.2226,0.733,6.10159e+06,900.014
0.00882,0.0444,4.35701e-31,0.2226,0.733,6.10159e+06,900.013
0.00884,0.0444,1.17356e-31,0.2226,0.733,6.10159e+06,900.013
0.00886,0.0444,3.12846e-32,0.2226,0.733,6.10159e+06,900.013
0.00888,0.0444,1.60905e-32,0.2226,0.733,6.10159e+06,900.012
0.0089,0.0444,2.15586e-33,0.2226,0.733,6.10159e+06,900.012
0.00892,0.0444,1.09756e-33,0.2226,0.733,6.10159e+06,900.012
0.00894,0.0444,1.42644e-34,0.2226,0.733,6.10159e+06,900.011
0.00896,0.0444,3.61419e-35,0.2226,0.733,6.10159e+06,900.011
0.00898,0.0444,9.06618e-36,0.2226,0.733,6.10159e+06,900.011
0.009,0.0444,2.25175e-36,0.2226,0.733,6.10159e+06,900.01
0.00902,0.0444,5.53756e-37,0.2226,0.733,6.10159e+06,900.01
0.00904,0.0444,1.34848e-37,0.2226,0.733,6.10159e+06,900.01
0.00906,0.0444,3.25178e-38,0.2226,0.733,6.10159e+06,900.01
0.00908,0.0444,7.7655e-39,0.2226,0.733,6.10159e+06,900.009
0.0091,0.0444,1.83659e-39,0.2226,0.733,6.10159e+06,900.009
0.00912,0.0444,4.302e-40,0.2226,0.733,6.10159e+06,900.009