x,NH3,C7H16,O2,N2,p,T
0,2.58263e-258,1,1.24337e-78,0,6.09976e+06,363
2e-05,2.22689e-257,1,7.98577e-78,0,6.09976e+06,363
4e-05,9.87863e-256,1,1.26917e-76,2.22045e-16,6.09976e+06,363
6e-05,2.68456e-253,1,4.59572e-75,0,6.09976e+06,363
8e-05,1.11427e-251,1,4.39261e-74,3.33067e-16,6.09976e+06,363
0.0001,4.58847e-250,1,3.9604e-73,0,6.09976e+06,363
0.00012,1.87452e-248,1,3.4251e-72,3.33067e-16,6.09976e+06,363.001
0.00014,7.59702e-247,1,2.86677e-71,5.55112e-16,6.09976e+06,363.001
0.00016,4.82188e-246,1,8.20666e-71,5.55112e-16,6.09976e+06,363.001
0.00018,1.21814e-243,1,1.85518e-69,5.55112e-16,6.09976e+06,363.001
0.0002,4.81912e-242,1,1.44214e-68,4.44089e-16,6.09976e+06,363.001
0.00022,1.89111e-240,1,1.09818e-67,3.33067e-16,6.09976e+06,363.001
0.00024,7.36093e-239,1,8.20061e-67,2.22045e-16,6.09976e+06,363.001
0.00026,2.84184e-237,1,6.00988e-66,1.11022e-16,6.09976e+06,363.001
0.00028,1.08819e-235,1,4.32509e-65,5.55112e-16,6.09976e+06,363.001
0.0003,4.13267e-234,1,3.05799e-64,3.33067e-16,6.09976e+06,363.001
0.00032,2.53892e-233,1,8.07843e-64,4.44089e-16,6.09976e+06,363.001
0.00034,5.81439e-231,1,1.45171e-62,2.22045e-16,6.09976e+06,363.002
0.00036,2.15388e-229,1,9.75272e-62,3.33067e-16,6.09976e+06,363.002
0.00038,7.91239e-228,1,6.4444e-61,2.22045e-16,6.09976e+06,363.002
0.0004,2.88236e-226,1,4.1892e-60,3.33067e-16,6.09976e+06,363.002
0.00042,1.04119e-224,1,2.67941e-59,4.44089e-16,6.09976e+06,363.002
0.00044,3.72939e-223,1,1.68644e-58,2.22045e-16,6.09976e+06,363.002
0.00046,1.32452e-221,1,1.04467e-57,1.11022e-16,6.09976e+06,363.002
0.00048,4.66421e-220,1,6.36957e-57,2.22045e-16,6.09976e+06,363.002
0.0005,1.62848e-218,1,3.82307e-56,1.11022e-16,6.09976e+06,363.002
0.00052,5.63709e-217,1,2.25905e-55,7.77156e-16,6.09976e+06,363.002
0.00054,1.93457e-215,1,1.31428e-54,4.44089e-16,6.09976e+06,363.002
0.00056,6.58194e-214,1,7.52891e-54,3.33067e-16,6.09976e+06,363.003
0.00058,2.21999e-212,1,4.24713e-53,2.22045e-16,6.09976e+06,363.003
0.0006,7.42266e-211,1,2.35943e-52,2.22045e-16,6.09976e+06,363.003
0.00062,2.46017e-209,1,1.29092e-51,0,6.09976e+06,363.003
0.00064,8.08267e-208,1,6.95663e-51,4.44089e-16,6.09976e+06,363.003
0.00066,2.63216e-206,1,3.69261e-50,2.22045e-16,6.09976e+06,363.003
0.00068,8.49614e-205,1,1.93078e-49,2.22045e-16,6.09976e+06,363.003
0.0007,2.71813e-203,1,9.94533e-49,2.22045e-16,6.09976e+06,363.003
0.00072,8.61869e-202,1,5.04685e-48,2.22045e-16,6.09976e+06,363.003
0.00074,2.70845e-200,1,2.52325e-47,8.88178e-16,6.09976e+06,363.003
0.00076,8.43515e-199,1,1.24298e-46,1.11022e-16,6.09976e+06,363.003
0.00078,2.60341e-197,1,6.03333e-46,3.33067e-16,6.09976e+06,363.004
0.0008,7.96261e-196,1,2.88576e-45,2.22045e-16,6.09976e+06,363.004
0.00082,2.41332e-194,1,1.36019e-44,1.11022e-16,6.09976e+06,363.004
0.00084,7.24781e-193,1,6.31824e-44,1.11022e-16,6.09976e+06,363.004
0.00086,2.15683e-191,1,2.89251e-43,4.44089e-16,6.09976e+06,363.004
0.00088,6.35953e-190,1,1.30514e-42,1.33227e-15,6.09976e+06,363.004
0.0009,1.85789e-188,1,5.80451e-42,1.22125e-15,6.09976e+06,363.004
0.00092,5.37757e-187,1,2.54463e-41,1.44329e-15,6.09976e+06,363.004
0.00094,1.54208e-185,1,1.09965e-40,1.44329e-15,6.09976e+06,363.004
0.00096,4.38094e-184,1,4.6847e-40,1.55431e-15,6.09976e+06,363.004
0.00098,1.23297e-182,1,1.96754e-39,1.88738e-15,6.09976e+06,363.004
0.001,3.43753e-181,1,8.14718e-39,1.44329e-15,6.09976e+06,363.005
0.00102,9.49365e-180,1,3.32623e-38,1.44329e-15,6.09976e+06,363.005
0.00104,2.59716e-178,1,1.339e-37,1.11022e-15,6.09976e+06,363.005
0.00106,7.03763e-177,1,5.31519e-37,8.88178e-16,6.09976e+06,363.005
0.00108,1.88887e-175,1,2.08059e-36,1.11022e-15,6.09976e+06,363.005
0.0011,5.02122e-174,1,8.03164e-36,6.66134e-16,6.09976e+06,363.005
0.00112,1.322e-172,1,3.05772e-35,2.22045e-16,6.09976e+06,363.005
0.00114,3.44713e-171,1,1.14812e-34,4.44089e-16,6.09976e+06,363.005
0.00116,8.90162e-170,1,4.25205e-34,2.22045e-16,6.09976e+06,363.005
0.00118,2.27641e-168,1,1.55328e-33,8.88178e-16,6.09976e+06,363.005
0.0012,5.76485e-167,1,5.59717e-33,7.77156e-16,6.09976e+06,363.005
0.00122,1.44566e-165,1,1.98964e-32,1.11022e-15,6.09976e+06,363.006
0.00124,3.58977e-164,1,6.97734e-32,5.55112e-16,6.09976e+06,363.006
0.00126,8.82629e-163,1,2.41401e-31,0,6.09976e+06,363.006
0.00128,2.14874e-161,1,8.24031e-31,1.11022e-16,6.09976e+06,363.006
0.0013,5.17926e-160,1,2.77541e-30,0,6.09976e+06,363.006
0.00132,1.23599e-158,1,9.22385e-30,1.11022e-16,6.09976e+06,363.006
0.00134,2.92019e-157,1,3.02498e-29,0,6.09976e+06,363.006
0.00136,6.8303e-156,1,9.78992e-29,1.11022e-16,6.09976e+06,363.006
0.00138,1.58156e-154,1,3.12685e-28,2.22045e-16,6.09976e+06,363.006
0.0014,3.62522e-153,1,9.85661e-28,2.22045e-16,6.09976e+06,363.006
0.00142,8.22564e-152,1,3.06665e-27,1.11022e-16,6.09976e+06,363.006
0.00144,1.84747e-150,1,9.41761e-27,3.33067e-16,6.09976e+06,363.007
0.00146,4.10715e-149,1,2.85482e-26,2.22045e-16,6.09976e+06,363.007
0.00148,9.03743e-148,1,8.54286e-26,3.33067e-16,6.09976e+06,363.007
0.0015,1.96823e-146,1,2.52369e-25,3.33067e-16,6.09976e+06,363.007
0.00152,4.24244e-145,1,7.36036e-25,0,6.09976e+06,363.007
0.00154,9.05007e-144,1,2.11942e-24,1.11022e-16,6.09976e+06,363.007
0.00156,1.91059e-142,1,6.02578e-24,4.44089e-16,6.09976e+06,363.007
0.00158,3.99161e-141,1,1.69165e-23,8.88178e-16,6.09976e+06,363.007
0.0016,8.25236e-140,1,4.68954e-23,1.11022e-15,6.09976e+06,363.007
0.00162,1.68827e-138,1,1.2838e-22,1.11022e-15,6.09976e+06,363.007
0.00164,3.41763e-137,1,3.47085e-22,1.11022e-15,6.09976e+06,363.007
0.00166,6.84561e-136,1,9.26757e-22,1.44329e-15,6.09976e+06,363.008
0.00168,1.35671e-134,1,2.44406e-21,1.55431e-15,6.09976e+06,363.008
0.0017,2.66033e-133,1,6.36647e-21,1.11022e-15,6.09976e+06,363.008
0.00172,5.1611e-132,1,1.63812e-20,0,6.09976e+06,363.008
0.00174,9.90584e-131,1,4.16371e-20,0,6.09976e+06,363.008
0.00176,1.88091e-129,1,1.0455e-19,0,6.09976e+06,363.008
0.00178,3.53312e-128,1,2.59356e-19,0,6.09976e+06,363.008
0.0018,6.56515e-127,1,6.35658e-19,2.22045e-16,6.09976e+06,363.008
0.00182,1.20674e-125,1,1.53932e-18,1.11022e-16,6.09976e+06,363.008
0.00184,2.19407e-124,1,3.68328e-18,9.99201e-16,6.09976e+06,363.008
0.00186,3.94584e-123,1,8.70891e-18,7.77156e-16,6.09976e+06,363.008
0.00188,7.01885e-122,1,2.03488e-17,1.22125e-15,6.09976e+06,363.009
0.0019,1.23485e-120,1,4.69877e-17,1.11022e-15,6.09976e+06,363.009
0.00192,2.14867e-119,1,1.07231e-16,1.44329e-15,6.09976e+06,363.009
0.00194,3.69757e-118,1,2.41865e-16,2.44249e-15,6.09976e+06,363.009
0.00196,6.29276e-117,1,5.39216e-16,4.21885e-15,6.09976e+06,363.009
0.00198,1.05908e-115,1,1.18826e-15,8.43769e-15,6.09976e+06,363.009
0.002,1.76263e-114,1,2.58849e-15,1.87628e-14,6.09976e+06,363.009
0.00202,2.90087e-113,1,5.57426e-15,4.16334e-14,6.09976e+06,363.009
0.00204,4.72076e-112,1,1.18674e-14,8.75966e-14,6.09976e+06,363.009
0.00206,1.89635e-111,1,1.72419e-14,1.25455e-13,6.09976e+06,363.009
0.00208,1.20857e-109,1,5.19846e-14,3.65041e-13,6.09976e+06,363.009
0.0021,1.90117e-108,1,1.06971e-13,7.3197e-13,6.09976e+06,363.009
0.00212,2.95684e-107,1,2.17661e-13,1.45106e-12,6.09976e+06,363.01
0.00214,4.5465e-106,1,4.37963e-13,2.84694e-12,6.09976e+06,363.01
0.00216,6.91124e-105,1,8.71484e-13,5.52547e-12,6.09976e+06,363.01
0.00218,1.0386e-103,1,1.71502e-12,1.06115e-11,6.09976e+06,363.01
0.0022,1.54291e-102,1,3.33803e-12,2.01679e-11,6.09976e+06,363.01
0.00222,2.26579e-101,1,6.42606e-12,3.79334e-11,6.09976e+06,363.01
0.00224,3.28903e-100,1,1.22365e-11,7.06176e-11,6.09976e+06,363.01
0.00226,4.71924e-99,1,2.30487e-11,1.30125e-10,6.09976e+06,363.01
0.00228,6.69295e-98,1,4.29474e-11,2.37347e-10,6.09976e+06,363.01
0.0023,9.38188e-97,1,7.91687e-11,4.28547e-10,6.09976e+06,363.01
0.00232,1.29979e-95,1,1.44383e-10,7.65994e-10,6.09976e+06,363.01
0.00234,1.77974e-94,1,2.60526e-10,1.35544e-09,6.09976e+06,363.011
0.00236,2.40837e-93,1,4.65133e-10,2.37458e-09,6.09976e+06,363.011
0.00238,3.22076e-92,1,8.21711e-10,4.11869e-09,6.09976e+06,363.011
0.0024,4.25646e-91,1,1.43648e-09,7.07325e-09,6.09976e+06,363.011
0.00242,5.55877e-90,1,2.48509e-09,1.20277e-08,6.09976e+06,363.011
0.00244,7.17357e-89,1,4.25471e-09,2.02523e-08,6.09976e+06,363.011
0.00246,9.14751e-88,1,7.20952e-09,3.37683e-08,6.09976e+06,363.012
0.00248,1.15257e-86,1,1.20913e-08,5.57581e-08,6.09976e+06,363.012
0.0025,1.43488e-85,1,2.00722e-08,9.11777e-08,6.09976e+06,363.013
0.00252,1.76495e-84,1,3.29834e-08,1.47663e-07,6.09976e+06,363.014
0.00254,2.14487e-83,1,5.36535e-08,2.36853e-07,6.09976e+06,363.016
0.00256,2.57519e-82,1,8.64025e-08,3.76293e-07,6.09976e+06,363.018
0.00258,3.05451e-81,0.999999,1.37754e-07,5.92156e-07,6.09976e+06,363.022
0.0026,3.57917e-80,0.999999,2.17449e-07,9.23058e-07,6.09976e+06,363.026
0.00262,4.143e-79,0.999998,3.39867e-07,1.42536e-06,6.09976e+06,363.033
0.00264,4.73722e-78,0.999997,5.25999e-07,2.18044e-06,6.09976e+06,363.042
0.00266,5.35045e-77,0.999996,8.0614e-07,3.30453e-06,6.09976e+06,363.055
0.00268,5.96894e-76,0.999994,1.22352e-06,4.96182e-06,6.09976e+06,363.073
0.0027,6.57695e-75,0.999991,1.83914e-06,7.38181e-06,6.09976e+06,363.097
0.00272,7.1573e-74,0.999986,2.73809e-06,1.08817e-05,6.09976e+06,363.13
0.00274,7.69215e-73,0.99998,4.03772e-06,1.58953e-05,6.09976e+06,363.175
0.00276,8.16378e-72,0.999971,5.8981e-06,2.30091e-05,6.09976e+06,363.235
0.00278,8.55556e-71,0.999958,8.53502e-06,3.30079e-05,6.09976e+06,363.315
0.0028,8.85284e-70,0.999941,1.22361e-05,4.693e-05,6.09976e+06,363.421
0.00282,9.04378e-69,0.999916,1.73807e-05,6.61343e-05,6.09976e+06,363.559
0.00284,9.12009e-68,0.999883,2.44627e-05,9.23796e-05,6.09976e+06,363.739
0.00286,9.07757e-67,0.999838,3.41189e-05,0.000127918,6.09976e+06,363.97
0.00288,8.91641e-66,0.999777,4.71606e-05,0.000175602,6.09976e+06,364.267
0.0029,8.64119e-65,0.999696,6.461e-05,0.000239004,6.09976e+06,364.644
0.00292,8.26075e-64,0.99959,8.77409e-05,0.000322554,6.09976e+06,365.119
0.00294,7.78767e-63,0.99945,0.000118123,0.000431682,6.09976e+06,365.713
0.00296,7.23761e-62,0.999269,0.000157671,0.000572978,6.09976e+06,366.451
0.00298,6.62853e-61,0.999037,0.000208695,0.000754357,6.09976e+06,367.361
0.003,5.9797e-60,0.998741,0.000273953,0.000985232,6.09976e+06,368.473
0.00302,5.31076e-59,0.998367,0.000356705,0.00127668,6.09976e+06,369.822
0.00304,4.6408e-58,0.997898,0.000460772,0.00164164,6.09976e+06,371.447
0.00306,3.98743e-57,0.997314,0.000590583,0.00209503,6.09976e+06,373.389
0.00308,3.36608e-56,0.996595,0.000751235,0.002654,6.09976e+06,375.691
0.0031,2.78943e-55,0.995713,0.000948542,0.00333801,6.09976e+06,378.401
0.00312,2.267e-54,0.994642,0.00118909,0.00416903,6.09976e+06,381.564
0.00314,1.805e-53,0.993348,0.00148026,0.00517165,6.09976e+06,385.228
0.00316,1.40637e-52,0.991796,0.00183033,0.00637329,6.09976e+06,389.44
0.00318,1.07098e-51,0.989947,0.00224845,0.00780424,6.09976e+06,394.243
0.0032,7.96081e-51,0.987757,0.00274475,0.00949783,6.09976e+06,399.679
0.00322,5.76806e-50,0.985179,0.00333034,0.0114906,6.09976e+06,405.781
0.00324,4.06796e-49,0.98216,0.00401735,0.0138222,6.09976e+06,412.58
0.00326,2.78844e-48,0.978645,0.00481899,0.0165358,6.09976e+06,420.097
0.00328,1.85497e-47,0.974572,0.00574958,0.019678,6.09976e+06,428.345
0.0033,1.19579e-46,0.969877,0.00682457,0.0232987,6.09976e+06,437.329
0.00332,7.45906e-46,0.964488,0.00806055,0.0274516,6.09976e+06,447.044
0.00334,4.49575e-45,0.958331,0.0094753,0.0321937,6.09976e+06,457.478
0.00336,2.61468e-44,0.951327,0.0110878,0.0375856,6.09976e+06,468.608
0.00338,1.46547e-43,0.94339,0.0129182,0.0436915,6.09976e+06,480.409
0.0034,7.90602e-43,0.934434,0.0149877,0.0505785,6.09976e+06,492.845
0.00342,4.10106e-42,0.924364,0.0173189,0.0583171,6.09976e+06,505.878
0.00344,2.0435e-41,0.913085,0.0199349,0.0669803,6.09976e+06,519.465
0.00346,9.77314e-41,0.900497,0.0228603,0.0766432,6.09976e+06,533.561
0.00348,4.48308e-40,0.886498,0.0261197,0.0873822,6.09976e+06,548.118
0.0035,1.97138e-39,0.870988,0.0297384,0.099274,6.09976e+06,563.085
0.00352,8.30715e-39,0.853864,0.0337415,0.112394,6.09976e+06,578.408
0.00354,3.35375e-38,0.835032,0.0381534,0.126815,6.09976e+06,594.031
0.00356,1.29715e-37,0.8144,0.0429969,0.142604,6.09976e+06,609.892
0.00358,4.80724e-37,0.791889,0.0482924,0.159819,6.09976e+06,625.924
0.0036,1.70763e-36,0.767437,0.0540566,0.178506,6.09976e+06,642.056
0.00362,5.81717e-36,0.741002,0.0603009,0.198697,6.09976e+06,658.208
0.00364,1.90179e-35,0.712571,0.06703,0.220399,6.09976e+06,674.294
0.00366,5.97229e-35,0.682166,0.0742397,0.243595,6.09976e+06,690.22
0.00368,1.80352e-34,0.649851,0.0819151,0.268234,6.09976e+06,705.887
0.0037,5.24385e-34,0.615742,0.0900289,0.294229,6.09976e+06,721.193
0.00372,1.47009e-33,0.58001,0.0985394,0.321451,6.09976e+06,736.033
0.00374,3.97997e-33,0.542887,0.10739,0.349723,6.09976e+06,750.307
0.00376,1.04226e-32,0.504666,0.116507,0.378826,6.09976e+06,763.921
0.00378,2.64484e-32,0.465702,0.125804,0.408494,6.09976e+06,776.795
0.0038,6.51532e-32,0.426398,0.13518,0.438422,6.09976e+06,788.861
0.00382,1.56095e-31,0.387199,0.144524,0.468276,6.09976e+06,800.075
0.00384,3.64394e-31,0.348573,0.153721,0.497707,6.09976e+06,810.412
0.00386,8.30391e-31,0.310987,0.162653,0.52636,6.09976e+06,819.869
0.00388,1.85061e-30,0.27489,0.171212,0.553898,6.09976e+06,828.465
0.0039,4.04049e-30,0.240684,0.179299,0.580017,6.09976e+06,836.236
0.00392,8.65722e-30,0.20871,0.186832,0.604457,6.09976e+06,843.231
0.00394,1.82327e-29,0.179231,0.19375,0.627019,6.09976e+06,849.509
0.00396,3.78019e-29,0.152421,0.200012,0.647567,6.09976e+06,855.133
0.00398,7.7266e-29,0.128367,0.205601,0.666032,6.09976e+06,860.166
0.004,1.55901e-28,0.10707,0.210521,0.682409,6.09976e+06,864.671
0.00402,3.10903e-28,0.0884566,0.214795,0.696749,6.09976e+06,868.704
0.00404,6.13472e-28,0.0723929,0.218457,0.70915,6.09976e+06,872.317
0.00406,1.19893e-27,0.0586977,0.221556,0.719746,6.09976e+06,875.554
0.00408,2.32277e-27,0.0471589,0.224145,0.728696,6.09976e+06,878.456
0.0041,4.46457e-27,0.0375474,0.226282,0.73617,6.09976e+06,881.057
0.00412,6.17266e-27,0.0333912,0.227199,0.73941,6.09976e+06,882.253
0.00414,1.61502e-26,0.0231758,0.229429,0.747395,6.09976e+06,885.468
0.00416,3.04296e-26,0.0179705,0.230547,0.751483,6.09976e+06,887.328
0.00418,5.70122e-26,0.0138144,0.231426,0.75476,6.09976e+06,888.985
0.0042,1.06257e-25,0.0105287,0.23211,0.757362,6.09976e+06,890.459
0.00422,1.97067e-25,0.00795631,0.232634,0.75941,6.09976e+06,891.764
0.00424,3.63792e-25,0.00596151,0.233032,0.761007,6.09976e+06,892.919
0.00426,6.68615e-25,0.00442913,0.233328,0.762243,6.09976e+06,893.935
0.00428,1.22368e-24,0.00326289,0.233547,0.76319,6.09976e+06,894.828
0.0043,2.23046e-24,0.00238347,0.233705,0.763912,6.09976e+06,895.608
0.00432,4.04966e-24,0.00172639,0.233817,0.764456,6.09976e+06,896.289
0.00434,7.32457e-24,0.00123988,0.233895,0.764865,6.09976e+06,896.88
0.00436,1.31985e-23,0.000882933,0.233948,0.765169,6.09976e+06,897.391
0.00438,2.3696e-23,0.000623408,0.233983,0.765394,6.09976e+06,897.831
0.0044,4.23897e-23,0.000436416,0.234004,0.765559,6.09976e+06,898.209
0.00442,7.55607e-23,0.000302902,0.234017,0.76568,6.09976e+06,898.532
0.00444,1.34214e-22,0.000208431,0.234023,0.765768,6.09976e+06,898.807
0.00446,1.78639e-22,0.000172339,0.234025,0.765803,6.09976e+06,898.928
0.00448,4.19025e-22,9.61605e-05,0.234025,0.765878,6.09976e+06,899.237
0.0045,7.36532e-22,6.44677e-05,0.234024,0.765912,6.09976e+06,899.403
0.00452,1.29013e-21,4.28437e-05,0.234021,0.765936,6.09976e+06,899.542
0.00454,2.252e-21,2.82237e-05,0.234019,0.765953,6.09976e+06,899.657
0.00456,3.91736e-21,1.84292e-05,0.234016,0.765966,6.09976e+06,899.754
0.00458,6.79053e-21,1.19276e-05,0.234013,0.765975,6.09976e+06,899.833
0.0046,1.17299e-20,7.65126e-06,0.234011,0.765981,6.09976e+06,899.899
0.00462,2.01913e-20,4.86445e-06,0.234009,0.765986,6.09976e+06,899.953
0.00464,3.46337e-20,3.06505e-06,0.234007,0.76599,6.09976e+06,899.997
0.00466,5.91962e-20,1.91395e-06,0.234006,0.765992,6.09976e+06,900.032
0.00468,1.00818e-19,1.18439e-06,0.234005,0.765994,6.09976e+06,900.061
0.0047,1.71089e-19,7.263e-07,0.234004,0.765996,6.09976e+06,900.085
0.00472,2.89289e-19,4.41346e-07,0.234003,0.765997,6.09976e+06,900.104
0.00474,4.87369e-19,2.65746e-07,0.234002,0.765998,6.09976e+06,900.119
0.00476,8.18062e-19,1.58549e-07,0.234002,0.765998,6.09976e+06,900.131
0.00478,1.36806e-18,9.3725e-08,0.234001,0.765999,6.09976e+06,900.14
0.0048,2.2793e-18,5.4894e-08,0.234001,0.765999,6.09976e+06,900.148
0.00482,3.78327e-18,3.18533e-08,0.234001,0.765999,6.09976e+06,900.154
0.00484,6.25591e-18,1.83117e-08,0.234001,0.765999,6.09976e+06,900.158
0.00486,1.03055e-17,1.04287e-08,0.234,0.766,6.09976e+06,900.162
0.00488,1.69121e-17,5.88354e-09,0.234,0.766,6.09976e+06,900.165
0.0049,2.76498e-17,3.28799e-09,0.234,0.766,6.09976e+06,900.167
0.00492,4.50367e-17,1.82003e-09,0.234,0.766,6.09976e+06,900.168
0.00494,7.30907e-17,9.97809e-10,0.234,0.766,6.09976e+06,900.17
0.00496,1.18207e-16,5.41728e-10,0.234,0.766,6.09976e+06,900.171
0.00498,1.90547e-16,2.91206e-10,0.234,0.766,6.09976e+06,900.171
0.005,3.06254e-16,1.54945e-10,0.234,0.766,6.09976e+06,900.172
0.00502,4.90973e-16,8.1569e-11,0.234,0.766,6.09976e+06,900.172
0.00504,7.85492e-16,4.24581e-11,0.234,0.766,6.09976e+06,900.173
0.00506,1.25469e-15,2.18336e-11,0.234,0.766,6.09976e+06,900.173
0.00508,2.00167e-15,1.10824e-11,0.234,0.766,6.09976e+06,900.173
0.0051,3.1896e-15,5.54856e-12,0.234,0.766,6.09976e+06,900.173
0.00512,4.0243e-15,3.90544e-12,0.234,0.766,6.09976e+06,900.173
0.00514,8.06135e-15,1.33378e-12,0.234,0.766,6.09976e+06,900.173
0.00516,1.27736e-14,6.40835e-13,0.234,0.766,6.09976e+06,900.174
0.00518,2.01828e-14,3.04014e-13,0.234,0.766,6.09976e+06,900.174
0.0052,3.17868e-14,1.42486e-13,0.234,0.766,6.09976e+06,900.174
0.00522,4.98883e-14,6.60017e-14,0.234,0.766,6.09976e+06,900.174
0.00524,7.80119e-14,3.02199e-14,0.234,0.766,6.09976e+06,900.174
0.00526,1.21532e-13,1.3673e-14,0.234,0.766,6.09976e+06,900.174
0.00528,1.88609e-13,6.10882e-15,0.234,0.766,6.09976e+06,900.174
0.0053,2.91101e-13,2.72326e-15,0.234,0.766,6.09976e+06,900.174
0.00532,4.46426e-13,1.22358e-15,0.234,0.766,6.09976e+06,900.174
0.00534,6.80605e-13,5.54766e-16,0.234,0.766,6.09976e+06,900.174
0.00536,1.03261e-12,2.52583e-16,0.234,0.766,6.09976e+06,900.174
0.00538,1.56054e-12,1.14698e-16,0.234,0.766,6.09976e+06,900.174
0.0054,2.35023e-12,5.16731e-17,0.234,0.766,6.09976e+06,900.174
0.00542,3.52704e-12,2.30459e-17,0.234,0.766,6.09976e+06,900.174
0.00544,5.27643e-12,1.01385e-17,0.234,0.766,6.09976e+06,900.174
0.00546,7.86602e-12,4.40036e-18,0.234,0.766,6.09976e+06,900.174
0.00548,1.16853e-11,1.88403e-18,0.234,0.766,6.09976e+06,900.174
0.0055,1.7298e-11,7.95594e-19,0.234,0.766,6.09976e+06,900.174
0.00552,2.5516e-11,3.31435e-19,0.234,0.766,6.09976e+06,900.174
0.00554,3.75043e-11,1.36236e-19,0.234,0.766,6.09976e+06,900.174
0.00556,5.49289e-11,5.52669e-20,0.234,0.766,6.09976e+06,900.174
0.00558,8.01619e-11,2.21315e-20,0.234,0.766,6.09976e+06,900.174
0.0056,1.16569e-10,8.75034e-21,0.234,0.766,6.09976e+06,900.174
0.00562,1.68903e-10,3.41659e-21,0.234,0.766,6.09976e+06,900.174
0.00564,2.43858e-10,1.31763e-21,0.234,0.766,6.09976e+06,900.174
0.00566,3.50812e-10,5.01988e-22,0.234,0.766,6.09976e+06,900.174
0.00568,5.02863e-10,1.88954e-22,0.234,0.766,6.09976e+06,900.174
0.0057,7.18227e-10,7.02794e-23,0.234,0.766,6.09976e+06,900.174
0.00572,1.02213e-09,2.58315e-23,0.234,0.766,6.09976e+06,900.174
0.00574,1.44939e-09,9.38319e-24,0.234,0.766,6.09976e+06,900.174
0.00576,2.04784e-09,3.36862e-24,0.234,0.766,6.09976e+06,900.174
0.00578,2.88293e-09,1.19528e-24,0.234,0.766,6.09976e+06,900.174
0.0058,4.0439e-09,4.19189e-25,0.234,0.766,6.09976e+06,900.174
0.00582,5.65187e-09,1.45303e-25,0.234,0.766,6.09976e+06,900.174
0.00584,7.8706e-09,4.97804e-26,0.234,0.766,6.09976e+06,900.174
0.00586,1.09206e-08,1.68561e-26,0.234,0.766,6.09976e+06,900.174
0.00588,1.50975e-08,5.64099e-27,0.234,0.766,6.09976e+06,900.174
0.0059,2.07962e-08,1.8657e-27,0.234,0.766,6.09976e+06,900.174
0.00592,2.85418e-08,6.09816e-28,0.234,0.766,6.09976e+06,900.174
0.00594,3.90298e-08,1.96973e-28,0.234,0.766,6.09976e+06,900.174
0.00596,5.31771e-08,6.28706e-29,0.234,0.766,6.09976e+06,900.174
0.00598,7.21885e-08,1.98288e-29,0.234,0.766,6.09976e+06,900.174
0.006,9.76392e-08,6.17921e-30,0.234,0.766,6.09976e+06,900.174
0.00602,1.31581e-07,1.90253e-30,0.234,0.766,6.09976e+06,900.174
0.00604,1.76673e-07,5.78716e-31,0.234,0.766,6.09976e+06,900.174
0.00606,2.36351e-07,1.73905e-31,0.234,0.766,6.09976e+06,900.174
0.00608,3.15031e-07,5.1623e-32,0.234,0.766,6.09976e+06,900.174
0.0061,4.18365e-07,1.51368e-32,0.234,0.766,6.09976e+06,900.174
0.00612,5.5356e-07,4.38382e-33,0.234,0.765999,6.09976e+06,900.174
0.00614,7.2976e-07,1.25394e-33,0.234,0.765999,6.09976e+06,900.174
0.00616,9.58516e-07,3.54219e-34,0.234,0.765999,6.09976e+06,900.174
0.00618,1.25436e-06,9.88128e-35,0.234,0.765999,6.09976e+06,900.174
0.0062,1.6355e-06,2.72188e-35,0.234,0.765999,6.09976e+06,900.174
0.00622,2.12461e-06,7.40307e-36,0.234,0.765998,6.09976e+06,900.174
0.00624,2.74987e-06,1.98797e-36,0.234,0.765997,6.09976e+06,900.173
0.00626,3.54607e-06,5.27024e-37,0.234,0.765997,6.09976e+06,900.173
0.00628,4.55599e-06,1.37925e-37,0.234,0.765996,6.09976e+06,900.173
0.0063,5.83204e-06,3.56303e-38,0.233999,0.765995,6.09976e+06,900.173
0.00632,7.43806e-06,9.08491e-39,0.233999,0.765993,6.09976e+06,900.173
0.00634,9.45149e-06,2.28608e-39,0.233999,0.765992,6.09976e+06,900.173
0.00636,1.19659e-05,5.67346e-40,0.233999,0.765989,6.09976e+06,900.173
0.00638,1.509e-05,1.3929e-40,0.233998,0.765987,6.09976e+06,900.173
0.0064,1.89543e-05,3.39247e-41,0.233998,0.765983,6.09976e+06,900.173
0.00642,2.37156e-05,8.19678e-42,0.233997,0.765979,6.09976e+06,900.173
0.00644,2.95592e-05,1.9648e-42,0.233997,0.765974,6.09976e+06,900.173
0.00646,3.67024e-05,4.67259e-43,0.233996,0.765968,6.09976e+06,900.172
0.00648,4.53996e-05,1.10251e-43,0.233994,0.76596,6.09976e+06,900.172
0.0065,5.59462e-05,2.58111e-44,0.233993,0.765951,6.09976e+06,900.172
0.00652,6.86844e-05,5.99584e-45,0.233991,0.76594,6.09976e+06,900.171
0.00654,8.4008e-05,1.38207e-45,0.233989,0.765927,6.09976e+06,900.171
0.00656,0.000102368,3.16126e-46,0.233986,0.765912,6.09976e+06,900.171
0.00658,0.000124278,7.17566e-47,0.233983,0.765893,6.09976e+06,900.17
0.0066,0.00015032,1.6164e-47,0.233979,0.765871,6.09976e+06,900.17
0.00662,0.000181151,3.61359e-48,0.233973,0.765845,6.09976e+06,900.17
0.00664,0.000217505,8.01768e-49,0.233967,0.765815,6.09976e+06,900.169
0.00666,0.000260202,1.7656e-49,0.23396,0.76578,6.09976e+06,900.169
0.00668,0.000310149,3.85914e-50,0.233951,0.765739,6.09976e+06,900.168
0.0067,0.000368347,8.37251e-51,0.233941,0.765691,6.09976e+06,900.168
0.00672,0.000435888,1.80304e-51,0.233928,0.765636,6.09976e+06,900.167
0.00674,0.000513965,3.85439e-52,0.233914,0.765572,6.09976e+06,900.167
0.00676,0.000603865,8.17944e-53,0.233896,0.7655,6.09976e+06,900.167
0.00678,0.000706969,1.72315e-53,0.233876,0.765417,6.09976e+06,900.167
0.0068,0.000824753,3.6039e-54,0.233852,0.765323,6.09976e+06,900.167
0.00682,0.000958778,7.48318e-55,0.233825,0.765216,6.09976e+06,900.167
0.00684,0.00111069,1.5427e-55,0.233793,0.765096,6.09976e+06,900.168
0.00686,0.00128219,3.15772e-56,0.233757,0.764961,6.09976e+06,900.168
0.00688,0.00147505,6.41769e-57,0.233715,0.76481,6.09976e+06,900.169
0.0069,0.0016911,1.29513e-57,0.233667,0.764642,6.09976e+06,900.171
0.00692,0.00193217,2.59533e-58,0.233613,0.764455,6.09976e+06,900.173
0.00694,0.00220012,5.16456e-59,0.233552,0.764248,6.09976e+06,900.175
0.00696,0.00249678,1.02059e-59,0.233484,0.76402,6.09976e+06,900.178
0.00698,0.00282396,2.00292e-60,0.233407,0.763769,6.09976e+06,900.181
0.007,0.00318339,3.90378e-61,0.233321,0.763495,6.09976e+06,900.185
0.00702,0.00357675,7.5567e-62,0.233226,0.763197,6.09976e+06,900.189
0.00704,0.00400555,1.45285e-62,0.233122,0.762873,6.09976e+06,900.194
0.00706,0.0044712,2.77439e-63,0.233007,0.762522,6.09976e+06,900.199
0.00708,0.00497491,5.26243e-64,0.232881,0.762144,6.09976e+06,900.205
0.0071,0.00551772,9.91503e-65,0.232744,0.761738,6.09976e+06,900.211
0.00712,0.00610039,1.85569e-65,0.232595,0.761304,6.09976e+06,900.217
0.00714,0.00672348,3.45015e-66,0.232435,0.760841,6.09976e+06,900.224
0.00716,0.00738722,6.3724e-67,0.232263,0.76035,6.09976e+06,900.231
0.00718,0.00809159,1.16928e-67,0.232079,0.759829,6.09976e+06,900.237
0.0072,0.0088362,2.13156e-68,0.231883,0.75928,6.09976e+06,900.244
0.00722,0.00962037,3.86058e-69,0.231676,0.758704,6.09976e+06,900.25
0.00724,0.0104431,6.94704e-70,0.231457,0.7581,6.09976e+06,900.255
0.00726,0.0113029,1.24209e-70,0.231227,0.75747,6.09976e+06,900.26
0.00728,0.0121981,2.20658e-71,0.230987,0.756815,6.09976e+06,900.264
0.0073,0.0131266,3.8951e-72,0.230737,0.756137,6.09976e+06,900.266
0.00732,0.0140861,6.83218e-73,0.230478,0.755436,6.09976e+06,900.268
0.00734,0.0150737,1.19084e-73,0.23021,0.754716,6.09976e+06,900.268
0.00736,0.0160865,2.06257e-74,0.229935,0.753978,6.09976e+06,900.267
0.00738,0.0171213,3.5501e-75,0.229654,0.753224,6.09976e+06,900.264
0.0074,0.0181744,6.07235e-76,0.229368,0.752457,6.09976e+06,900.259
0.00742,0.0192422,1.03221e-76,0.229078,0.75168,6.09976e+06,900.253
0.00744,0.0203208,1.74373e-77,0.228785,0.750894,6.09976e+06,900.245
0.00746,0.0214062,2.92756e-78,0.22849,0.750103,6.09976e+06,900.235
0.00748,0.0224944,4.88486e-79,0.228195,0.74931,6.09976e+06,900.224
0.0075,0.0235812,8.10078e-80,0.227901,0.748518,6.09976e+06,900.211
0.00752,0.0246625,1.33518e-80,0.227609,0.747728,6.09976e+06,900.197
0.00754,0.0257345,2.18723e-81,0.22732,0.746945,6.09976e+06,900.182
0.00756,0.026793,3.56125e-82,0.227036,0.746171,6.09976e+06,900.166
0.00758,0.0278344,5.76328e-83,0.226758,0.745408,6.09976e+06,900.149
0.0076,0.0288552,9.27051e-84,0.226485,0.744659,6.09976e+06,900.132
0.00762,0.0298519,1.48221e-84,0.226221,0.743927,6.09976e+06,900.114
0.00764,0.0308214,2.35558e-85,0.225964,0.743214,6.09976e+06,900.097
0.00766,0.031761,3.72113e-86,0.225717,0.742522,6.09976e+06,900.079
0.00768,0.0326682,5.84313e-87,0.225479,0.741852,6.09976e+06,900.062
0.0077,0.0335409,9.12049e-88,0.225252,0.741207,6.09976e+06,900.046
0.00772,0.0343771,1.41514e-88,0.225035,0.740588,6.09976e+06,900.031
0.00774,0.0351754,2.18273e-89,0.224829,0.739995,6.09976e+06,900.016
0.00776,0.0359346,3.34675e-90,0.224635,0.739431,6.09976e+06,900.003
0.00778,0.0366541,5.10126e-91,0.224452,0.738894,6.09976e+06,899.991
0.0078,0.0373333,7.72986e-92,0.22428,0.738387,6.09976e+06,899.98
0.00782,0.037972,1.16443e-92,0.224119,0.737909,6.09976e+06,899.971
0.00784,0.0385705,1.74384e-93,0.223969,0.73746,6.09976e+06,899.963
0.00786,0.0388548,6.73367e-94,0.223899,0.737247,6.09976e+06,899.96
0.00788,0.0396488,3.84317e-95,0.223702,0.736649,6.09976e+06,899.952
0.0079,0.0398943,1.47539e-95,0.223642,0.736464,6.09976e+06,899.95
0.00792,0.0405747,8.27529e-97,0.223476,0.735949,6.09976e+06,899.945
0.00794,0.0409835,1.20383e-97,0.223378,0.735639,6.09976e+06,899.944
0.00796,0.041358,1.7412e-98,0.223288,0.735354,6.09976e+06,899.944
0.00798,0.0416999,2.50405e-99,0.223207,0.735094,6.09976e+06,899.944
0.008,0.0420109,3.58057e-100,0.223133,0.734856,6.09976e+06,899.946
0.00802,0.0422927,5.0908e-101,0.223067,0.73464,6.09976e+06,899.948
0.00804,0.0425472,7.19703e-102,0.223008,0.734445,6.09976e+06,899.95
0.00806,0.0427761,1.01172e-102,0.222955,0.734269,6.09976e+06,899.954
0.00808,0.0429812,1.41422e-103,0.222908,0.734111,6.09976e+06,899.957
0.0081,0.0431644,1.96575e-104,0.222866,0.733969,6.09976e+06,899.961
0.00812,0.0433274,2.71709e-105,0.22283,0.733843,6.09976e+06,899.965
0.00814,0.0434718,3.73466e-106,0.222797,0.733731,6.09976e+06,899.969
0.00816,0.0435994,5.10479e-107,0.222769,0.733632,6.09976e+06,899.973
0.00818,0.0437117,6.93891e-108,0.222744,0.733544,6.09976e+06,899.977
0.0082,0.0437626,2.55297e-108,0.222733,0.733504,6.09976e+06,899.979
0.00822,0.0438962,1.26098e-109,0.222704,0.7334,6.09976e+06,899.984
0.00824,0.0439349,4.6139e-110,0.222696,0.733369,6.09976e+06,899.986
0.00826,0.044036,2.24165e-111,0.222674,0.73329,6.09976e+06,899.991
0.00828,0.0440921,2.96435e-112,0.222662,0.733246,6.09976e+06,899.994
0.0083,0.0441404,3.89875e-113,0.222652,0.733207,6.09976e+06,899.997
0.00832,0.0441818,5.09989e-114,0.222644,0.733175,6.09976e+06,899.999
0.00834,0.0442173,6.63505e-115,0.222636,0.733147,6.09976e+06,900.002
0.00836,0.0442475,8.58583e-116,0.22263,0.733123,6.09976e+06,900.004
0.00838,0.0442731,1.10505e-116,0.222625,0.733102,6.09976e+06,900.005
0.0084,0.0442947,1.41466e-117,0.22262,0.733085,6.09976e+06,900.007
0.00842,0.044313,1.80136e-118,0.222617,0.73307,6.09976e+06,900.008
0.00844,0.0443283,2.28157e-119,0.222614,0.733058,6.09976e+06,900.01
0.00846,0.0443411,2.87447e-120,0.222611,0.733048,6.09976e+06,900.011
0.00848,0.0443518,3.60231e-121,0.222609,0.733039,6.09976e+06,900.011
0.0085,0.0443607,4.49067e-122,0.222607,0.733032,6.09976e+06,900.012
0.00852,0.0443681,5.56871e-123,0.222606,0.733026,6.09976e+06,900.013
0.00854,0.0443712,1.95714e-123,0.222605,0.733023,6.09976e+06,900.013
0.00856,0.0443791,8.42971e-125,0.222604,0.733017,6.09976e+06,900.013
0.00858,0.0443812,2.9472e-125,0.222603,0.733015,6.09976e+06,900.014
0.0086,0.0443865,1.24972e-126,0.222602,0.733011,6.09976e+06,900.014
0.00862,0.0443892,1.50984e-127,0.222602,0.733009,6.09976e+06,900.014
0.00864,0.0443914,1.81471e-128,0.222602,0.733007,6.09976e+06,900.014
0.00866,0.0443932,2.16993e-129,0.222601,0.733006,6.09976e+06,900.014
0.00868,0.0443946,2.58141e-130,0.222601,0.733004,6.09976e+06,900.014
0.0087,0.0443957,3.05523e-131,0.222601,0.733004,6.09976e+06,900.014
0.00872,0.0443966,3.59762e-132,0.222601,0.733003,6.09976e+06,900.014
0.00874,0.0443974,4.2148e-133,0.2226,0.733002,6.09976e+06,900.014
0.00876,0.0443979,4.91289e-134,0.2226,0.733002,6.09976e+06,900.013
0.00878,0.0443984,5.69772e-135,0.2226,0.733001,6.09976e+06,900.013
0.0088,0.0443988,6.5747e-136,0.2226,0.733001,6.09976e+06,900.013
0.00882,0.044399,7.54865e-137,0.2226,0.733001,6.09976e+06,900.013
0.00884,0.0443993,8.62356e-138,0.2226,0.733001,6.09976e+06,900.013
0.00886,0.0443994,9.80245e-139,0.2226,0.733,6.09976e+06,900.012
0.00888,0.0443995,3.29874e-139,0.2226,0.733,6.09976e+06,900.012
0.0089,0.0443997,1.24782e-140,0.2226,0.733,6.09976e+06,900.012
0.00892,0.0443997,4.17839e-141,0.2226,0.733,6.09976e+06,900.012
0.00894,0.0443998,1.55728e-142,0.2226,0.733,6.09976e+06,900.011