x,NH3,C7H16,O2,N2,p,T
0,1.67982e-322,1,4.85728e-269,1.11022e-16,6.10218e+06,363
2e-05,0,1,3.33563e-268,0,6.10218e+06,363
4e-05,1.63042e-322,1,6.94093e-267,1.11022e-16,6.10218e+06,363
6e-05,1.58101e-322,1,4.82537e-265,2.22045e-16,6.10218e+06,363
8e-05,3.45846e-323,1,7.88919e-264,0,6.10218e+06,363
0.0001,0,1,1.27938e-262,6.66134e-16,6.10218e+06,363
0.00012,0,1,2.06257e-261,7.77156e-16,6.10218e+06,363
0.00014,0,1,3.30723e-260,4.44089e-16,6.10218e+06,363
0.00016,0,1,1.32167e-259,5.55112e-16,6.10218e+06,363
0.00018,0,1,8.36826e-258,2.22045e-16,6.10218e+06,363
0.0002,1.97626e-323,1,1.32055e-256,5.55112e-16,6.10218e+06,363
0.00022,2.47033e-323,1,2.07284e-255,3.33067e-16,6.10218e+06,363
0.00024,0,1,3.2364e-254,1.11022e-16,6.10218e+06,363
0.00026,1.38338e-322,1,5.02623e-253,3.33067e-16,6.10218e+06,363
0.00028,3.95253e-323,1,7.76433e-252,5.55112e-16,6.10218e+06,363
0.0003,1.28457e-322,1,1.19301e-250,2.22045e-16,6.10218e+06,363.001
0.00032,1.43279e-322,1,4.66706e-250,0,6.10218e+06,363.001
0.00034,2.47033e-323,1,2.77175e-248,0,6.10218e+06,363.001
0.00036,1.33398e-322,1,4.191e-247,1.11022e-16,6.10218e+06,363.001
0.00038,1.97626e-323,1,6.30305e-246,2.22045e-16,6.10218e+06,363.001
0.0004,1.67982e-322,1,9.42868e-245,3.33067e-16,6.10218e+06,363.001
0.00042,0,1,1.40287e-243,9.99201e-16,6.10218e+06,363.001
0.00044,0,1,2.07608e-242,9.99201e-16,6.10218e+06,363.001
0.00046,0,1,3.05584e-241,6.66134e-16,6.10218e+06,363.001
0.00048,0,1,4.47378e-240,1.11022e-16,6.10218e+06,363.001
0.0005,0,1,6.51439e-239,1.11022e-16,6.10218e+06,363.001
0.00052,1.38338e-322,1,9.43463e-238,2.22045e-16,6.10218e+06,363.001
0.00054,0,1,1.35902e-236,3.33067e-16,6.10218e+06,363.001
0.00056,1.38338e-322,1,1.94704e-235,7.77156e-16,6.10218e+06,363.001
0.00058,4.5454e-322,1,2.7744e-234,9.99201e-16,6.10218e+06,363.001
0.0006,1.041e-320,1,3.93193e-233,5.55112e-16,6.10218e+06,363.001
0.00062,2.67744e-319,1,5.54219e-232,2.22045e-16,6.10218e+06,363.001
0.00064,6.91351e-318,1,7.76954e-231,1.11022e-15,6.10218e+06,363.001
0.00066,1.77519e-316,1,1.08329e-229,8.88178e-16,6.10218e+06,363.001
0.00068,4.53584e-315,1,1.50219e-228,1.11022e-15,6.10218e+06,363.001
0.0007,1.15329e-313,1,2.07175e-227,1.22125e-15,6.10218e+06,363.001
0.00072,2.91797e-312,1,2.84168e-226,1.22125e-15,6.10218e+06,363.001
0.00074,7.34652e-311,1,3.8765e-225,1.33227e-15,6.10218e+06,363.001
0.00076,1.8405e-309,1,5.25927e-224,1.22125e-15,6.10218e+06,363.001
0.00078,4.5882e-308,1,7.09629e-223,8.88178e-16,6.10218e+06,363.001
0.0008,1.13814e-306,1,9.52258e-222,5.55112e-16,6.10218e+06,363.002
0.00082,2.80924e-305,1,1.27085e-220,0,6.10218e+06,363.002
0.00084,6.89956e-304,1,1.68672e-219,6.66134e-16,6.10218e+06,363.002
0.00086,1.68612e-302,1,2.2264e-218,2.22045e-16,6.10218e+06,363.002
0.00088,4.10002e-301,1,2.9226e-217,2.22045e-16,6.10218e+06,363.002
0.0009,9.91994e-300,1,3.81541e-216,1.11022e-16,6.10218e+06,363.002
0.00092,2.38811e-298,1,4.95353e-215,0,6.10218e+06,363.002
0.00094,5.72028e-297,1,6.39568e-214,1.11022e-16,6.10218e+06,363.002
0.00096,1.36331e-295,1,8.21214e-213,3.33067e-16,6.10218e+06,363.002
0.00098,3.2328e-294,1,1.04862e-211,4.44089e-16,6.10218e+06,363.002
0.001,7.62727e-293,1,1.3316e-210,6.66134e-16,6.10218e+06,363.002
0.00102,1.79044e-291,1,1.68158e-209,8.88178e-16,6.10218e+06,363.002
0.00104,4.18165e-290,1,2.11178e-208,1.33227e-15,6.10218e+06,363.002
0.00106,9.7169e-289,1,2.63732e-207,1.33227e-15,6.10218e+06,363.002
0.00108,2.24644e-287,1,3.27535e-206,6.66134e-16,6.10218e+06,363.002
0.0011,5.16708e-286,1,4.04511e-205,9.99201e-16,6.10218e+06,363.002
0.00112,1.18243e-284,1,4.96797e-204,1.11022e-15,6.10218e+06,363.002
0.00114,2.69201e-283,1,6.06738e-203,1.33227e-15,6.10218e+06,363.002
0.00116,6.09747e-282,1,7.36874e-202,5.55112e-16,6.10218e+06,363.002
0.00118,1.374e-280,1,8.89925e-201,8.88178e-16,6.10218e+06,363.002
0.0012,3.08025e-279,1,1.06876e-199,1.22125e-15,6.10218e+06,363.002
0.00122,6.86974e-278,1,1.27634e-198,1.33227e-15,6.10218e+06,363.003
0.00124,1.52421e-276,1,1.5157e-197,7.77156e-16,6.10218e+06,363.003
0.00126,3.36433e-275,1,1.78985e-196,9.99201e-16,6.10218e+06,363.003
0.00128,7.3874e-274,1,2.10172e-195,1.11022e-15,6.10218e+06,363.003
0.0013,1.6137e-272,1,2.45405e-194,1.33227e-15,6.10218e+06,363.003
0.00132,3.50659e-271,1,2.84932e-193,9.99201e-16,6.10218e+06,363.003
0.00134,7.58011e-270,1,3.28962e-192,1.33227e-15,6.10218e+06,363.003
0.00136,1.63e-268,1,3.77653e-191,1.11022e-15,6.10218e+06,363.003
0.00138,3.48673e-267,1,4.31103e-190,7.77156e-16,6.10218e+06,363.003
0.0014,7.41926e-266,1,4.89336e-189,6.66134e-16,6.10218e+06,363.003
0.00142,1.5704e-264,1,5.52291e-188,7.77156e-16,6.10218e+06,363.003
0.00144,3.30646e-263,1,6.19813e-187,2.22045e-16,6.10218e+06,363.003
0.00146,6.92489e-262,1,6.91645e-186,3.33067e-16,6.10218e+06,363.003
0.00148,1.44263e-260,1,7.67418e-185,2.22045e-16,6.10218e+06,363.003
0.0015,2.9894e-259,1,8.46652e-184,2.22045e-16,6.10218e+06,363.003
0.00152,6.16161e-258,1,9.2875e-183,6.66134e-16,6.10218e+06,363.003
0.00154,1.26323e-256,1,1.013e-181,5.55112e-16,6.10218e+06,363.003
0.00156,2.57596e-255,1,1.0986e-180,7.77156e-16,6.10218e+06,363.003
0.00158,5.22473e-254,1,1.18462e-179,7.77156e-16,6.10218e+06,363.004
0.0016,1.05402e-252,1,1.27007e-178,0,6.10218e+06,363.004
0.00162,2.11489e-251,1,1.35389e-177,3.33067e-16,6.10218e+06,363.004
0.00164,4.22063e-250,1,1.43497e-176,1.11022e-16,6.10218e+06,363.004
0.00166,8.37743e-249,1,1.51218e-175,1.11022e-16,6.10218e+06,363.004
0.00168,1.6538e-247,1,1.5844e-174,0,6.10218e+06,363.004
0.0017,3.24704e-246,1,1.65051e-173,0,6.10218e+06,363.004
0.00172,6.34046e-245,1,1.70948e-172,1.11022e-16,6.10218e+06,363.004
0.00174,1.23133e-243,1,1.76036e-171,1.11022e-16,6.10218e+06,363.004
0.00176,2.37819e-242,1,1.80229e-170,1.11022e-16,6.10218e+06,363.004
0.00178,4.56801e-241,1,1.83455e-169,2.22045e-16,6.10218e+06,363.004
0.0018,8.72595e-240,1,1.85659e-168,4.44089e-16,6.10218e+06,363.004
0.00182,1.65767e-238,1,1.86802e-167,0,6.10218e+06,363.004
0.00184,3.13167e-237,1,1.86862e-166,3.33067e-16,6.10218e+06,363.004
0.00186,5.88358e-236,1,1.85836e-165,8.88178e-16,6.10218e+06,363.004
0.00188,1.09923e-234,1,1.83743e-164,7.77156e-16,6.10218e+06,363.004
0.0019,2.04226e-233,1,1.80615e-163,7.77156e-16,6.10218e+06,363.005
0.00192,3.77315e-232,1,1.76507e-162,6.66134e-16,6.10218e+06,363.005
0.00194,6.93203e-231,1,1.71486e-161,1.22125e-15,6.10218e+06,363.005
0.00196,1.26641e-229,1,1.65635e-160,9.99201e-16,6.10218e+06,363.005
0.00198,2.3006e-228,1,1.59049e-159,6.66134e-16,6.10218e+06,363.005
0.002,4.15579e-227,1,1.5183e-158,7.77156e-16,6.10218e+06,363.005
0.00202,7.46459e-226,1,1.44089e-157,6.66134e-16,6.10218e+06,363.005
0.00204,1.33319e-224,1,1.35941e-156,8.88178e-16,6.10218e+06,363.005
0.00206,5.62224e-224,1,4.1663e-156,4.44089e-16,6.10218e+06,363.005
0.00208,4.18065e-222,1,1.1888e-154,0,6.10218e+06,363.005
0.0021,7.34e-221,1,1.1019e-153,0,6.10218e+06,363.005
0.00212,1.28132e-219,1,1.01533e-152,0,6.10218e+06,363.005
0.00214,2.22395e-218,1,9.30038e-152,0,6.10218e+06,363.005
0.00216,3.83786e-217,1,8.46875e-151,0,6.10218e+06,363.005
0.00218,6.58484e-216,1,7.66585e-150,1.11022e-16,6.10218e+06,363.006
0.0022,1.12328e-214,1,6.89796e-149,0,6.10218e+06,363.006
0.00222,1.90505e-213,1,6.17016e-148,5.55112e-16,6.10218e+06,363.006
0.00224,3.21219e-212,1,5.48637e-147,7.77156e-16,6.10218e+06,363.006
0.00226,5.38472e-211,1,4.84934e-146,7.77156e-16,6.10218e+06,363.006
0.00228,8.974e-210,1,4.26076e-145,4.44089e-16,6.10218e+06,363.006
0.0023,1.48684e-208,1,3.72129e-144,4.44089e-16,6.10218e+06,363.006
0.00232,2.44901e-207,1,3.23073e-143,3.33067e-16,6.10218e+06,363.006
0.00234,4.01015e-206,1,2.78807e-142,1.11022e-16,6.10218e+06,363.006
0.00236,6.52781e-205,1,2.39166e-141,1.11022e-16,6.10218e+06,363.006
0.00238,1.05634e-203,1,2.03931e-140,3.33067e-16,6.10218e+06,363.006
0.0024,1.69929e-202,1,1.72845e-139,0,6.10218e+06,363.006
0.00242,2.71736e-201,1,1.45616e-138,0,6.10218e+06,363.006
0.00244,4.31956e-200,1,1.2194e-137,0,6.10218e+06,363.007
0.00246,6.82557e-199,1,1.01497e-136,3.33067e-16,6.10218e+06,363.007
0.00248,1.07211e-197,1,8.39727e-136,5.55112e-16,6.10218e+06,363.007
0.0025,1.67391e-196,1,6.90543e-135,6.66134e-16,6.10218e+06,363.007
0.00252,2.59784e-195,1,5.64429e-134,2.22045e-16,6.10218e+06,363.007
0.00254,4.00752e-194,1,4.58554e-133,4.44089e-16,6.10218e+06,363.007
0.00256,6.14489e-193,1,3.7028e-132,2.22045e-16,6.10218e+06,363.007
0.00258,9.3653e-192,1,2.97184e-131,1.11022e-16,6.10218e+06,363.007
0.0026,1.41871e-190,1,2.37068e-130,0,6.10218e+06,363.007
0.00262,2.1361e-189,1,1.87962e-129,0,6.10218e+06,363.007
0.00264,3.19669e-188,1,1.48119e-128,0,6.10218e+06,363.007
0.00266,4.75471e-187,1,1.16009e-127,0,6.10218e+06,363.007
0.00268,7.02889e-186,1,9.03053e-127,0,6.10218e+06,363.008
0.0027,1.03272e-184,1,6.98663e-126,2.22045e-16,6.10218e+06,363.008
0.00272,1.508e-183,1,5.37221e-125,0,6.10218e+06,363.008
0.00274,2.18848e-182,1,4.10549e-124,0,6.10218e+06,363.008
0.00276,3.15642e-181,1,3.11818e-123,0,6.10218e+06,363.008
0.00278,4.52434e-180,1,2.35373e-122,1.11022e-16,6.10218e+06,363.008
0.0028,6.4449e-179,1,1.76574e-121,0,6.10218e+06,363.008
0.00282,9.12369e-178,1,1.31647e-120,2.22045e-16,6.10218e+06,363.008
0.00284,1.28355e-176,1,9.75448e-120,2.22045e-16,6.10218e+06,363.008
0.00286,1.79446e-175,1,7.18292e-119,0,6.10218e+06,363.008
0.00288,2.49305e-174,1,5.25653e-118,0,6.10218e+06,363.008
0.0029,3.44187e-173,1,3.82292e-117,0,6.10218e+06,363.009
0.00292,4.72192e-172,1,2.76302e-116,0,6.10218e+06,363.009
0.00294,6.43719e-171,1,1.98456e-115,0,6.10218e+06,363.009
0.00296,8.72008e-170,1,1.41654e-114,0,6.10218e+06,363.009
0.00298,1.17377e-168,1,1.00479e-113,0,6.10218e+06,363.009
0.003,1.56993e-167,1,7.08271e-113,0,6.10218e+06,363.009
0.00302,2.08642e-166,1,4.96133e-112,0,6.10218e+06,363.009
0.00304,2.75511e-165,1,3.45357e-111,0,6.10218e+06,363.009
0.00306,3.61483e-164,1,2.38893e-110,0,6.10218e+06,363.009
0.00308,4.71237e-163,1,1.64211e-109,0,6.10218e+06,363.009
0.0031,6.10359e-162,1,1.12165e-108,0,6.10218e+06,363.01
0.00312,7.85449e-161,1,7.61322e-108,0,6.10218e+06,363.01
0.00314,1.00422e-159,1,5.13487e-107,0,6.10218e+06,363.01
0.00316,1.27559e-158,1,3.44141e-106,0,6.10218e+06,363.01
0.00318,1.60974e-157,1,2.29185e-105,0,6.10218e+06,363.01
0.0032,2.01815e-156,1,1.51661e-104,0,6.10218e+06,363.01
0.00322,2.5136e-155,1,9.97227e-104,0,6.10218e+06,363.01
0.00324,3.1101e-154,1,6.51546e-103,0,6.10218e+06,363.01
0.00326,3.8228e-153,1,4.22982e-102,0,6.10218e+06,363.01
0.00328,4.66773e-152,1,2.72847e-101,0,6.10218e+06,363.011
0.0033,5.6616e-151,1,1.74878e-100,0,6.10218e+06,363.011
0.00332,6.82136e-150,1,1.11368e-99,0,6.10218e+06,363.011
0.00334,8.16381e-149,1,7.0469e-99,5.55112e-16,6.10218e+06,363.011
0.00336,9.70496e-148,1,4.43036e-98,0,6.10218e+06,363.011
0.00338,1.14595e-146,1,2.76745e-97,2.22045e-16,6.10218e+06,363.011
0.0034,1.34398e-145,1,1.71757e-96,7.77156e-16,6.10218e+06,363.011
0.00342,1.56557e-144,1,1.05911e-95,4.44089e-16,6.10218e+06,363.011
0.00344,1.81129e-143,1,6.48867e-95,6.66134e-16,6.10218e+06,363.011
0.00346,2.08128e-142,1,3.94959e-94,5.55112e-16,6.10218e+06,363.012
0.00348,2.37514e-141,1,2.3885e-93,1.33227e-15,6.10218e+06,363.012
0.0035,2.69186e-140,1,1.43507e-92,6.66134e-16,6.10218e+06,363.012
0.00352,3.02976e-139,1,8.56621e-92,2.22045e-16,6.10218e+06,363.012
0.00354,3.38645e-138,1,5.08006e-91,5.55112e-16,6.10218e+06,363.012
0.00356,3.75881e-137,1,2.99301e-90,8.88178e-16,6.10218e+06,363.012
0.00358,4.14299e-136,1,1.75187e-89,5.55112e-16,6.10218e+06,363.012
0.0036,4.53443e-135,1,1.0187e-88,3.33067e-16,6.10218e+06,363.012
0.00362,4.92791e-134,1,5.8849e-88,7.77156e-16,6.10218e+06,363.013
0.00364,5.31769e-133,1,3.37731e-87,6.66134e-16,6.10218e+06,363.013
0.00366,5.69757e-132,1,1.92548e-86,6.66134e-16,6.10218e+06,363.013
0.00368,6.06108e-131,1,1.09053e-85,4.44089e-16,6.10218e+06,363.013
0.0037,6.40163e-130,1,6.13569e-85,6.66134e-16,6.10218e+06,363.013
0.00372,6.71272e-129,1,3.42935e-84,1.11022e-15,6.10218e+06,363.013
0.00374,6.98811e-128,1,1.90404e-83,6.66134e-16,6.10218e+06,363.013
0.00376,7.22205e-127,1,1.05015e-82,6.66134e-16,6.10218e+06,363.014
0.00378,7.40947e-126,1,5.75356e-82,7.77156e-16,6.10218e+06,363.014
0.0038,7.54615e-125,1,3.13129e-81,4.44089e-16,6.10218e+06,363.014
0.00382,7.62889e-124,1,1.6928e-80,1.11022e-16,6.10218e+06,363.014
0.00384,7.65563e-123,1,9.09038e-80,1.11022e-16,6.10218e+06,363.014
0.00386,7.62551e-122,1,4.84891e-79,8.88178e-16,6.10218e+06,363.014
0.00388,7.53895e-121,1,2.56915e-78,0,6.10218e+06,363.014
0.0039,7.39763e-120,1,1.35211e-77,5.55112e-16,6.10218e+06,363.015
0.00392,7.20442e-119,1,7.06812e-77,9.99201e-16,6.10218e+06,363.015
0.00394,6.96331e-118,1,3.66998e-76,8.88178e-16,6.10218e+06,363.015
0.00396,6.67924e-117,1,1.89271e-75,8.88178e-16,6.10218e+06,363.015
0.00398,6.35796e-116,1,9.69529e-75,9.99201e-16,6.10218e+06,363.015
0.004,6.00584e-115,1,4.93274e-74,1.55431e-15,6.10218e+06,363.015
0.00402,5.62962e-114,1,2.49265e-73,1.11022e-15,6.10218e+06,363.015
0.00404,5.23623e-113,1,1.25105e-72,1.33227e-15,6.10218e+06,363.016
0.00406,4.83256e-112,1,6.23622e-72,1.22125e-15,6.10218e+06,363.016
0.00408,4.42527e-111,1,3.08744e-71,1.88738e-15,6.10218e+06,363.016
0.0041,4.02059e-110,1,1.51809e-70,1.22125e-15,6.10218e+06,363.016
0.00412,1.20832e-109,1,3.35761e-70,1.88738e-15,6.10218e+06,363.016
0.00414,3.2411e-108,1,3.59539e-69,1.55431e-15,6.10218e+06,363.016
0.00416,2.87551e-107,1,1.73174e-68,1.44329e-15,6.10218e+06,363.016
0.00418,2.53083e-106,1,8.28366e-68,1.44329e-15,6.10218e+06,363.017
0.0042,2.20964e-105,1,3.9351e-67,9.99201e-16,6.10218e+06,363.017
0.00422,1.91371e-104,1,1.85643e-66,1.11022e-15,6.10218e+06,363.017
0.00424,1.64403e-103,1,8.69736e-66,1.11022e-15,6.10218e+06,363.017
0.00426,1.4009e-102,1,4.04644e-65,1.11022e-15,6.10218e+06,363.017
0.00428,1.184e-101,1,1.86952e-64,7.77156e-16,6.10218e+06,363.017
0.0043,9.92504e-101,1,8.5774e-64,9.99201e-16,6.10218e+06,363.018
0.00432,8.25143e-100,1,3.90787e-63,1.11022e-15,6.10218e+06,363.018
0.00434,6.80344e-99,1,1.76799e-62,8.88178e-16,6.10218e+06,363.018
0.00436,5.56307e-98,1,7.94268e-62,1.11022e-15,6.10218e+06,363.018
0.00438,4.51099e-97,1,3.54321e-61,8.88178e-16,6.10218e+06,363.018
0.0044,3.62732e-96,1,1.56951e-60,1.11022e-15,6.10218e+06,363.018
0.00442,2.89228e-95,1,6.90334e-60,6.66134e-16,6.10218e+06,363.019
0.00444,2.28677e-94,1,3.01494e-59,3.33067e-16,6.10218e+06,363.019
0.00446,6.40958e-94,1,6.28396e-59,3.33067e-16,6.10218e+06,363.019
0.00448,1.39348e-92,1,5.62944e-58,4.44089e-16,6.10218e+06,363.019
0.0045,1.07391e-91,1,2.40668e-57,5.55112e-16,6.10218e+06,363.019
0.00452,8.20538e-91,1,1.02157e-56,4.44089e-16,6.10218e+06,363.019
0.00454,6.21558e-90,1,4.3054e-56,1.11022e-16,6.10218e+06,363.02
0.00456,4.66767e-89,1,1.80154e-55,8.88178e-16,6.10218e+06,363.02
0.00458,3.47488e-88,1,7.4843e-55,1.22125e-15,6.10218e+06,363.02
0.0046,2.56439e-87,1,3.08697e-54,1.22125e-15,6.10218e+06,363.02
0.00462,1.87595e-86,1,1.26409e-53,6.66134e-16,6.10218e+06,363.02
0.00464,1.36031e-85,1,5.13905e-53,1.11022e-16,6.10218e+06,363.02
0.00466,9.77717e-85,1,2.07415e-52,3.33067e-16,6.10218e+06,363.021
0.00468,6.96527e-84,1,8.31081e-52,9.99201e-16,6.10218e+06,363.021
0.0047,4.9181e-83,1,3.30586e-51,1.22125e-15,6.10218e+06,363.021
0.00472,3.44173e-82,1,1.30544e-50,1.11022e-15,6.10218e+06,363.021
0.00474,2.38705e-81,1,5.11746e-50,7.77156e-16,6.10218e+06,363.021
0.00476,1.64073e-80,1,1.99145e-49,8.88178e-16,6.10218e+06,363.022
0.00478,1.11761e-79,1,7.69299e-49,0,6.10218e+06,363.022
0.0048,7.54414e-79,1,2.95002e-48,4.44089e-16,6.10218e+06,363.022
0.00482,5.04637e-78,1,1.12292e-47,1.11022e-15,6.10218e+06,363.022
0.00484,3.34491e-77,1,4.24291e-47,1.33227e-15,6.10218e+06,363.022
0.00486,2.19692e-76,1,1.59133e-46,1.11022e-15,6.10218e+06,363.023
0.00488,1.42973e-75,1,5.9242e-46,8.88178e-16,6.10218e+06,363.023
0.0049,9.21913e-75,1,2.18911e-45,1.11022e-15,6.10218e+06,363.023
0.00492,5.88994e-74,1,8.02904e-45,5.55112e-16,6.10218e+06,363.023
0.00494,3.72823e-73,1,2.92289e-44,1.22125e-15,6.10218e+06,363.023
0.00496,2.33804e-72,1,1.0561e-43,1.33227e-15,6.10218e+06,363.024
0.00498,1.45261e-71,1,3.78734e-43,8.88178e-16,6.10218e+06,363.024
0.005,8.94082e-71,1,1.34801e-42,1.44329e-15,6.10218e+06,363.024
0.00502,5.45164e-70,1,4.76181e-42,9.99201e-16,6.10218e+06,363.024
0.00504,3.29296e-69,1,1.66942e-41,7.77156e-16,6.10218e+06,363.024
0.00506,1.97034e-68,1,5.80848e-41,1.11022e-16,6.10218e+06,363.025
0.00508,1.16784e-67,1,2.00566e-40,8.88178e-16,6.10218e+06,363.025
0.0051,6.85641e-67,1,6.87295e-40,1.33227e-15,6.10218e+06,363.025
0.00512,1.6554e-66,1,1.26865e-39,9.99201e-16,6.10218e+06,363.025
0.00514,2.29668e-65,1,7.88768e-39,5.55112e-16,6.10218e+06,363.025
0.00516,1.31029e-64,1,2.64152e-38,1.44329e-15,6.10218e+06,363.026
0.00518,7.40395e-64,1,8.7784e-38,1.44329e-15,6.10218e+06,363.026
0.0052,4.1436e-63,1,2.89484e-37,9.99201e-16,6.10218e+06,363.026
0.00522,2.29668e-62,1,9.47272e-37,2.22045e-16,6.10218e+06,363.026
0.00524,1.26073e-61,1,3.07578e-36,1.11022e-16,6.10218e+06,363.026
0.00526,6.85383e-61,1,9.90968e-36,1.11022e-16,6.10218e+06,363.027
0.00528,3.68997e-60,1,3.16795e-35,0,6.10218e+06,363.027
0.0053,1.96736e-59,1,1.00485e-34,8.88178e-16,6.10218e+06,363.027
0.00532,1.03873e-58,1,3.16244e-34,1.33227e-15,6.10218e+06,363.027
0.00534,5.43099e-58,1,9.87486e-34,1.22125e-15,6.10218e+06,363.028
0.00536,2.81189e-57,1,3.05928e-33,6.66134e-16,6.10218e+06,363.028
0.00538,1.44164e-56,1,9.40322e-33,1.11022e-16,6.10218e+06,363.028
0.0054,7.31886e-56,1,2.86745e-32,8.88178e-16,6.10218e+06,363.028
0.00542,3.67921e-55,1,8.67493e-32,1.11022e-16,6.10218e+06,363.028
0.00544,1.8314e-54,1,2.60363e-31,4.44089e-16,6.10218e+06,363.029
0.00546,9.02656e-54,1,7.75224e-31,0,6.10218e+06,363.029
0.00548,4.40523e-53,1,2.28981e-30,3.33067e-16,6.10218e+06,363.029
0.0055,2.12871e-52,1,6.70942e-30,2.22045e-16,6.10218e+06,363.029
0.00552,1.0185e-51,1,1.95019e-29,1.11022e-16,6.10218e+06,363.03
0.00554,4.82503e-51,1,5.62295e-29,0,6.10218e+06,363.03
0.00556,2.26324e-50,1,1.60819e-28,8.88178e-16,6.10218e+06,363.03
0.00558,1.05112e-49,1,4.56234e-28,1.11022e-16,6.10218e+06,363.03
0.0056,4.83347e-49,1,1.28382e-27,4.44089e-16,6.10218e+06,363.031
0.00562,2.20067e-48,1,3.58326e-27,0,6.10218e+06,363.031
0.00564,9.92058e-48,1,9.91971e-27,1.11022e-16,6.10218e+06,363.031
0.00566,4.42802e-47,1,2.72368e-26,0,6.10218e+06,363.031
0.00568,1.95692e-46,1,7.41722e-26,1.11022e-16,6.10218e+06,363.032
0.0057,8.56306e-46,1,2.00328e-25,0,6.10218e+06,363.032
0.00572,3.71008e-45,1,5.36599e-25,0,6.10218e+06,363.032
0.00574,1.59163e-44,1,1.42546e-24,5.55112e-16,6.10218e+06,363.032
0.00576,6.76095e-44,1,3.75529e-24,6.66134e-16,6.10218e+06,363.032
0.00578,2.84374e-43,1,9.81091e-24,5.55112e-16,6.10218e+06,363.033
0.0058,1.1844e-42,1,2.54179e-23,6.66134e-16,6.10218e+06,363.033
0.00582,4.8847e-42,1,6.53017e-23,1.11022e-16,6.10218e+06,363.033
0.00584,1.9949e-41,1,1.66361e-22,1.55431e-15,6.10218e+06,363.033
0.00586,8.06793e-41,1,4.20256e-22,2.10942e-15,6.10218e+06,363.034
0.00588,3.23125e-40,1,1.05268e-21,1.66533e-15,6.10218e+06,363.034
0.0059,1.28163e-39,1,2.61452e-21,2.10942e-15,6.10218e+06,363.034
0.00592,5.03441e-39,1,6.43855e-21,9.99201e-16,6.10218e+06,363.034
0.00594,1.95862e-38,1,1.57207e-20,8.88178e-16,6.10218e+06,363.035
0.00596,7.54716e-38,1,3.80572e-20,1.77636e-15,6.10218e+06,363.035
0.00598,2.88049e-37,1,9.13412e-20,2.22045e-15,6.10218e+06,363.035
0.006,1.08897e-36,1,2.17347e-19,1.55431e-15,6.10218e+06,363.035
0.00602,4.07811e-36,1,5.12726e-19,6.66134e-16,6.10218e+06,363.036
0.00604,1.51291e-35,1,1.19909e-18,1.11022e-16,6.10218e+06,363.036
0.00606,5.56032e-35,1,2.77995e-18,1.22125e-15,6.10218e+06,363.036
0.00608,2.02463e-34,1,6.38903e-18,9.99201e-16,6.10218e+06,363.036
0.0061,7.30424e-34,1,1.45556e-17,7.77156e-16,6.10218e+06,363.037
0.00612,2.61103e-33,1,3.28712e-17,1.11022e-15,6.10218e+06,363.037
0.00614,9.24876e-33,1,7.35825e-17,1.33227e-15,6.10218e+06,363.037
0.00616,3.24651e-32,1,1.63267e-16,9.99201e-16,6.10218e+06,363.038
0.00618,1.12938e-31,1,3.59063e-16,1.55431e-15,6.10218e+06,363.038
0.0062,3.89383e-31,1,7.82679e-16,3.9968e-15,6.10218e+06,363.038
0.00622,1.33064e-30,1,1.69091e-15,9.54792e-15,6.10218e+06,363.038
0.00624,4.5073e-30,1,3.62053e-15,2.35367e-14,6.10218e+06,363.039
0.00626,1.51348e-29,1,7.68281e-15,5.01821e-14,6.10218e+06,363.039
0.00628,5.03807e-29,1,1.61566e-14,1.05693e-13,6.10218e+06,363.039
0.0063,1.66269e-28,1,3.36704e-14,2.19047e-13,6.10218e+06,363.039
0.00632,5.44054e-28,1,6.95333e-14,4.45421e-13,6.10218e+06,363.04
0.00634,1.76516e-27,1,1.42287e-13,8.96172e-13,6.10218e+06,363.04
0.00636,5.67883e-27,1,2.88497e-13,1.78302e-12,6.10218e+06,363.04
0.00638,1.81172e-26,1,5.79556e-13,3.51252e-12,6.10218e+06,363.04
0.0064,5.73192e-26,1,1.15344e-12,6.85441e-12,6.10218e+06,363.041
0.00642,1.79846e-25,1,2.27404e-12,1.32558e-11,6.10218e+06,363.041
0.00644,5.59639e-25,1,4.44079e-12,2.53995e-11,6.10218e+06,363.041
0.00646,1.72715e-24,1,8.58867e-12,4.82138e-11,6.10218e+06,363.042
0.00648,5.28654e-24,1,1.64484e-11,9.06493e-11,6.10218e+06,363.042
0.0065,1.60484e-23,1,3.11864e-11,1.68783e-10,6.10218e+06,363.042
0.00652,4.83178e-23,1,5.85256e-11,3.11139e-10,6.10218e+06,363.042
0.00654,1.44273e-22,1,1.08676e-10,5.67692e-10,6.10218e+06,363.043
0.00656,4.27215e-22,1,1.99602e-10,1.0248e-09,6.10218e+06,363.043
0.00658,1.2545e-21,1,3.62444e-10,1.82952e-09,6.10218e+06,363.044
0.0066,3.65284e-21,1,6.50299e-10,3.22822e-09,6.10218e+06,363.044
0.00662,1.05461e-20,1,1.15207e-09,5.62624e-09,6.10218e+06,363.045
0.00664,3.01865e-20,1,2.01355e-09,9.67709e-09,6.10218e+06,363.046
0.00666,8.56554e-20,1,3.46821e-09,1.64098e-08,6.10218e+06,363.047
0.00668,2.40923e-19,1,5.87949e-09,2.74001e-08,6.10218e+06,363.048
0.0067,6.71679e-19,1,9.79416e-09,4.49822e-08,6.10218e+06,363.05
0.00672,1.85623e-18,1,1.60005e-08,7.24723e-08,6.10218e+06,363.052
0.00674,5.08697e-18,1,2.55751e-08,1.14342e-07,6.10218e+06,363.055
0.00676,1.38416e-17,1,3.98904e-08,1.76235e-07,6.10218e+06,363.059
0.00678,3.75257e-17,1,6.05598e-08,2.64761e-07,6.10218e+06,363.064
0.0068,1.02299e-16,1,8.93872e-08,3.8736e-07,6.10218e+06,363.071
0.00682,2.86914e-16,0.999999,1.28723e-07,5.53897e-07,6.10218e+06,363.08
0.00684,8.68621e-16,0.999999,1.83328e-07,7.84335e-07,6.10218e+06,363.092
0.00686,2.97626e-15,0.999999,2.6359e-07,1.12156e-06,6.10218e+06,363.109
0.00688,1.11455e-14,0.999998,3.84785e-07,1.62796e-06,6.10218e+06,363.133
0.0069,4.25119e-14,0.999997,5.66496e-07,2.38296e-06,6.10218e+06,363.167
0.00692,1.59549e-13,0.999996,8.37402e-07,3.50228e-06,6.10218e+06,363.215
0.00694,5.8294e-13,0.999994,1.24078e-06,5.15972e-06,6.10218e+06,363.281
0.00696,2.0672e-12,0.999991,1.84149e-06,7.61441e-06,6.10218e+06,363.374
0.00698,7.10795e-12,0.999986,2.73633e-06,1.12511e-05,6.10218e+06,363.503
0.007,2.36865e-11,0.999979,4.0695e-06,1.66402e-05,6.10218e+06,363.681
0.00702,7.64695e-11,0.999969,6.05559e-06,2.46263e-05,6.10218e+06,363.928
0.00704,2.39078e-10,0.999955,9.01353e-06,3.64583e-05,6.10218e+06,364.267
0.00706,7.23548e-10,0.999933,1.34167e-05,5.39808e-05,6.10218e+06,364.731
0.00708,2.11859e-09,0.9999,1.99666e-05,7.99136e-05,6.10218e+06,365.362
0.0071,5.9982e-09,0.999852,2.97006e-05,0.000118256,6.10218e+06,366.214
0.00712,1.64091e-08,0.999781,4.41479e-05,0.000174866,6.10218e+06,367.356
0.00714,4.334e-08,0.999676,6.55527e-05,0.000258284,6.10218e+06,368.87
0.00716,1.10416e-07,0.999522,9.71875e-05,0.000380861,6.10218e+06,370.859
0.00718,2.71063e-07,0.999296,0.000143781,0.000560286,6.10218e+06,373.44
0.0072,6.40522e-07,0.998966,0.000212083,0.000821546,6.10218e+06,376.745
0.00722,1.45526e-06,0.998488,0.000311578,0.00119935,6.10218e+06,380.915
0.00724,3.1757e-06,0.997801,0.00045533,0.0017409,6.10218e+06,386.094
0.00726,6.65029e-06,0.996824,0.000660918,0.00250888,6.10218e+06,392.417
0.00728,1.33559e-05,0.995451,0.000951378,0.00358427,6.10218e+06,400.001
0.0073,2.57176e-05,0.99355,0.00135603,0.00506863,6.10218e+06,408.934
0.00732,4.74887e-05,0.990956,0.00191112,0.00708561,6.10218e+06,419.268
0.00734,8.41501e-05,0.987474,0.00266012,0.00978137,6.10218e+06,431.019
0.00736,0.000143262,0.982879,0.00365379,0.013324,6.10218e+06,444.17
0.00738,0.000234707,0.976913,0.00495002,0.0179024,6.10218e+06,458.678
0.0074,0.000370764,0.969291,0.00661352,0.0237247,6.10218e+06,474.482
0.00742,0.000566006,0.959701,0.00871558,0.0310171,6.10218e+06,491.511
0.00744,0.000837032,0.947807,0.0113338,0.0400224,6.10218e+06,509.692
0.00746,0.00120207,0.933247,0.014552,0.0509992,6.10218e+06,528.947
0.00748,0.00168054,0.91564,0.0184594,0.0642199,6.10218e+06,549.198
0.0075,0.00229253,0.89459,0.0231504,0.0799674,6.10218e+06,570.353
0.00752,0.00305825,0.869692,0.0287216,0.0985285,6.10218e+06,592.303
0.00754,0.00399742,0.840551,0.035269,0.120183,6.10218e+06,614.907
0.00756,0.00512839,0.806807,0.0428816,0.145183,6.10218e+06,637.981
0.00758,0.00646694,0.768171,0.0516323,0.17373,6.10218e+06,661.286
0.0076,0.00802461,0.724476,0.0615655,0.205934,6.10218e+06,684.522
0.00762,0.00980646,0.675743,0.0726807,0.24177,6.10218e+06,707.33
0.00764,0.0118083,0.622257,0.0849142,0.281021,6.10218e+06,729.309
0.00766,0.0140137,0.564632,0.0981213,0.323234,6.10218e+06,750.048
0.00768,0.0163916,0.503868,0.112063,0.367678,6.10218e+06,769.17
0.0077,0.0188955,0.441352,0.126406,0.413347,6.10218e+06,786.384
0.00772,0.0214646,0.378792,0.140738,0.459005,6.10218e+06,801.532
0.00774,0.0240287,0.318069,0.154608,0.503295,6.10218e+06,814.61
0.00776,0.0265156,0.261024,0.167575,0.544885,6.10218e+06,825.757
0.00778,0.0288597,0.209227,0.17927,0.582643,6.10218e+06,835.221
0.0078,0.0310099,0.163785,0.189441,0.615764,6.10218e+06,843.294
0.00782,0.0329343,0.125244,0.197972,0.64385,6.10218e+06,850.265
0.00784,0.0346206,0.0936035,0.20488,0.666896,6.10218e+06,856.379
0.00786,0.0353755,0.080246,0.20776,0.676618,6.10218e+06,859.173
0.00788,0.0373107,0.0489484,0.214379,0.699361,6.10218e+06,866.704
0.0079,0.0378557,0.0410778,0.216002,0.705065,6.10218e+06,868.966
0.00792,0.0392367,0.0235483,0.219503,0.717712,6.10218e+06,875.098
0.00794,0.0399792,0.0158517,0.220955,0.723214,6.10218e+06,878.677
0.00796,0.0406077,0.0104653,0.221907,0.72702,6.10218e+06,881.872
0.00798,0.0411426,0.00677793,0.2225,0.729579,6.10218e+06,884.699
0.008,0.0416007,0.00430733,0.222844,0.731248,6.10218e+06,887.179
0.00802,0.0419955,0.00268708,0.223021,0.732296,6.10218e+06,889.334
0.00804,0.0423353,0.00166013,0.223089,0.732915,6.10218e+06,891.179
0.00806,0.0426304,0.00101311,0.223094,0.733263,6.10218e+06,892.75
0.00808,0.0428905,0.000597798,0.223064,0.733447,6.10218e+06,894.092
0.0081,0.0431158,0.000349748,0.223016,0.733519,6.10218e+06,895.212
0.00812,0.0433113,0.000202653,0.222961,0.733525,6.10218e+06,896.141
0.00814,0.0434833,0.000112742,0.222906,0.733498,6.10218e+06,896.92
0.00816,0.0436321,6.14349e-05,0.222855,0.733452,6.10218e+06,897.558
0.00818,0.0437601,3.28264e-05,0.222809,0.733398,6.10218e+06,898.077
0.0082,0.0438171,2.38226e-05,0.222789,0.73337,6.10218e+06,898.298
0.00822,0.0439631,8.84609e-06,0.222736,0.733292,6.10218e+06,898.833
0.00824,0.0440042,6.29715e-06,0.222722,0.733268,6.10218e+06,898.974
0.00826,0.0441084,2.20638e-06,0.222686,0.733203,6.10218e+06,899.312
0.00828,0.0441638,1.07024e-06,0.222668,0.733167,6.10218e+06,899.478
0.0083,0.0442099,5.09115e-07,0.222653,0.733137,6.10218e+06,899.607
0.00832,0.0442478,2.37506e-07,0.222641,0.733111,6.10218e+06,899.707
0.00834,0.0442789,1.08655e-07,0.222632,0.733089,6.10218e+06,899.783
0.00836,0.0443043,4.87451e-08,0.222624,0.733071,6.10218e+06,899.842
0.00838,0.0443247,2.14443e-08,0.222619,0.733057,6.10218e+06,899.886
0.0084,0.0443412,9.25105e-09,0.222614,0.733045,6.10218e+06,899.92
0.00842,0.0443543,3.91348e-09,0.222611,0.733035,6.10218e+06,899.945
0.00844,0.0443647,1.6234e-09,0.222608,0.733027,6.10218e+06,899.963
0.00846,0.0443729,6.60356e-10,0.222606,0.733021,6.10218e+06,899.976
0.00848,0.0443793,2.63404e-10,0.222604,0.733016,6.10218e+06,899.986
0.0085,0.0443843,1.03029e-10,0.222603,0.733012,6.10218e+06,899.993
0.00852,0.0443882,3.95173e-11,0.222602,0.733009,6.10218e+06,899.998
0.00854,0.0443898,2.42949e-11,0.222602,0.733008,6.10218e+06,900
0.00856,0.0443934,5.48213e-12,0.222601,0.733005,6.10218e+06,900.004
0.00858,0.0443943,3.30509e-12,0.222601,0.733005,6.10218e+06,900.005
0.0086,0.0443964,7.03387e-13,0.222601,0.733003,6.10218e+06,900.007
0.00862,0.0443974,2.44743e-13,0.2226,0.733002,6.10218e+06,900.008
0.00864,0.0443981,8.35728e-14,0.2226,0.733002,6.10218e+06,900.008
0.00866,0.0443986,2.80476e-14,0.2226,0.733001,6.10218e+06,900.008
0.00868,0.044399,9.29122e-15,0.2226,0.733001,6.10218e+06,900.008
0.0087,0.0443993,3.07687e-15,0.2226,0.733001,6.10218e+06,900.008
0.00872,0.0443995,1.13468e-15,0.2226,0.733,6.10218e+06,900.008
0.00874,0.0443996,3.96693e-16,0.2226,0.733,6.10218e+06,900.008
0.00876,0.0443997,1.42258e-16,0.2226,0.733,6.10218e+06,900.008
0.00878,0.0443998,5.1471e-17,0.2226,0.733,6.10218e+06,900.008
0.0088,0.0443999,1.85862e-17,0.2226,0.733,6.10218e+06,900.008
0.00882,0.0443999,6.65906e-18,0.2226,0.733,6.10218e+06,900.007
0.00884,0.0443999,2.36016e-18,0.2226,0.733,6.10218e+06,900.007
0.00886,0.0444,8.26381e-19,0.2226,0.733,6.10218e+06,900.007
0.00888,0.0444,4.8668e-19,0.2226,0.733,6.10218e+06,900.007
0.0089,0.0444,9.75348e-20,0.2226,0.733,6.10218e+06,900.006
0.00892,0.0444,5.6718e-20,0.2226,0.733,6.10218e+06,900.006
0.00894,0.0444,1.09461e-20,0.2226,0.733,6.10218e+06,900.006
0.00896,0.0444,3.59929e-21,0.2226,0.733,6.10218e+06,900.006
0.00898,0.0444,1.16903e-21,0.2226,0.733,6.10218e+06,900.006
0.009,0.0444,3.75071e-22,0.2226,0.733,6.10218e+06,900.006
0.00902,0.0444,1.18881e-22,0.2226,0.733,6.10218e+06,900.005
0.00904,0.0444,3.72265e-23,0.2226,0.733,6.10218e+06,900.005
0.00906,0.0444,1.15177e-23,0.2226,0.733,6.10218e+06,900.005
0.00908,0.0444,3.52113e-24,0.2226,0.733,6.10218e+06,900.005
0.0091,0.0444,1.06374e-24,0.2226,0.733,6.10218e+06,900.005
0.00912,0.0444,3.17583e-25,0.2226,0.733,6.10218e+06,900.005
0.00914,0.0444,9.37079e-26,0.2226,0.733,6.10218e+06,900.004
0.00916,0.0444,2.7329e-26,0.2226,0.733,6.10218e+06,900.004
0.00918,0.0444,7.87824e-27,0.2226,0.733,6.10218e+06,900.004
0.0092,0.0444,2.24503e-27,0.2226,0.733,6.10218e+06,900.004
0.00922,0.0444,1.1933e-27,0.2226,0.733,6.10218e+06,900.004
0.00924,0.0444,1.76151e-28,0.2226,0.733,6.10218e+06,900.004