x,NH3,C7H16,O2,N2,p,T
0,1.67982e-322,1,0,0,6.10255e+06,363
2e-05,0,1,0,0,6.10255e+06,363
4e-05,1.63042e-322,1,1.4822e-322,0,6.10255e+06,363
6e-05,1.58101e-322,1,1.33398e-322,4.44089e-16,6.10255e+06,363
8e-05,3.45846e-323,1,0,8.88178e-16,6.10255e+06,363
0.0001,0,1,1.72923e-322,3.33067e-16,6.10255e+06,363
0.00012,0,1,0,4.44089e-16,6.10255e+06,363
0.00014,0,1,0,1.11022e-16,6.10255e+06,363
0.00016,0,1,1.58101e-322,1.11022e-16,6.10255e+06,363
0.00018,0,1,0,1.11022e-16,6.10255e+06,363
0.0002,1.97626e-323,1,0,1.11022e-16,6.10255e+06,363
0.00022,2.47033e-323,1,0,1.11022e-16,6.10255e+06,363
0.00024,0,1,1.5316e-322,1.11022e-16,6.10255e+06,363
0.00026,1.38338e-322,1,0,0,6.10255e+06,363
0.00028,3.95253e-323,1,1.33398e-322,2.22045e-16,6.10255e+06,363
0.0003,1.28457e-322,1,0,5.55112e-16,6.10255e+06,363
0.00032,1.43279e-322,1,0,3.33067e-16,6.10255e+06,363
0.00034,2.47033e-323,1,0,1.11022e-16,6.10255e+06,363
0.00036,1.33398e-322,1,0,2.22045e-16,6.10255e+06,363
0.00038,1.97626e-323,1,0,1.11022e-16,6.10255e+06,363
0.0004,1.67982e-322,1,0,6.66134e-16,6.10255e+06,363
0.00042,0,1,1.23516e-322,2.22045e-16,6.10255e+06,363
0.00044,0,1,0,3.33067e-16,6.10255e+06,363
0.00046,0,1,1.43279e-322,0,6.10255e+06,363
0.00048,0,1,1.58101e-322,7.77156e-16,6.10255e+06,363
0.0005,0,1,0,1.44329e-15,6.10255e+06,363
0.00052,1.38338e-322,1,0,1.66533e-15,6.10255e+06,363
0.00054,0,1,0,1.33227e-15,6.10255e+06,363
0.00056,1.38338e-322,1,1.38338e-322,1.33227e-15,6.10255e+06,363
0.00058,0,1,0,1.22125e-15,6.10255e+06,363
0.0006,0,1,1.33398e-322,9.99201e-16,6.10255e+06,363
0.00062,0,1,3.70549e-322,8.88178e-16,6.10255e+06,363
0.00064,0,1,6.42285e-322,1.33227e-15,6.10255e+06,363
0.00066,0,1,3.31024e-322,1.44329e-15,6.10255e+06,363
0.00068,1.58101e-322,1,6.62048e-322,1.33227e-15,6.10255e+06,363
0.0007,2.47033e-323,1,3.50787e-322,1.33227e-15,6.10255e+06,363
0.00072,0,1,6.66989e-322,1.11022e-15,6.10255e+06,363
0.00074,0,1,4.5454e-322,1.11022e-16,6.10255e+06,363
0.00076,0,1,6.52167e-322,1.11022e-16,6.10255e+06,363
0.00078,0,1,8.54734e-322,3.33067e-16,6.10255e+06,363
0.0008,0,1,1.16599e-321,9.99201e-16,6.10255e+06,363
0.00082,0,1,1.15117e-321,7.77156e-16,6.10255e+06,363
0.00084,0,1,1.13141e-321,1.55431e-15,6.10255e+06,363
0.00086,0,1,1.35868e-321,1.11022e-15,6.10255e+06,363
0.00088,2.47033e-323,1,1.13141e-321,1.11022e-15,6.10255e+06,363
0.0009,0,1,1.36856e-321,1.33227e-15,6.10255e+06,363
0.00092,0,1,1.99603e-321,1.22125e-15,6.10255e+06,363
0.00094,0,1,2.50491e-321,1.66533e-15,6.10255e+06,363
0.00096,0,1,2.54444e-321,1.22125e-15,6.10255e+06,363
0.00098,0,1,2.49009e-321,1.11022e-15,6.10255e+06,363
0.001,0,1,2.50985e-321,9.99201e-16,6.10255e+06,363
0.00102,0,1,2.55926e-321,9.99201e-16,6.10255e+06,363
0.00104,0,1,2.53456e-321,6.66134e-16,6.10255e+06,363
0.00106,0,1,2.56914e-321,7.77156e-16,6.10255e+06,363
0.00108,9.88131e-324,1,2.65313e-321,9.99201e-16,6.10255e+06,363
0.0011,1.23516e-322,1,2.66301e-321,1.11022e-15,6.10255e+06,363
0.00112,1.28457e-322,1,3.07309e-321,8.88178e-16,6.10255e+06,363
0.00114,0,1,3.16696e-321,5.55112e-16,6.10255e+06,363
0.00116,1.63042e-322,1,3.16696e-321,9.99201e-16,6.10255e+06,363
0.00118,0,1,3.19166e-321,9.99201e-16,6.10255e+06,363
0.0012,0,1,3.23613e-321,8.88178e-16,6.10255e+06,363
0.00122,1.38338e-322,1,3.13732e-321,1.22125e-15,6.10255e+06,363
0.00124,0,1,3.24601e-321,8.88178e-16,6.10255e+06,363
0.00126,0,1,3.17684e-321,5.55112e-16,6.10255e+06,363
0.00128,1.5316e-322,1,3.13732e-321,7.77156e-16,6.10255e+06,363
0.0013,0,1,3.24107e-321,7.77156e-16,6.10255e+06,363
0.00132,0,1,3.11261e-321,9.99201e-16,6.10255e+06,363
0.00134,0,1,3.21143e-321,6.66134e-16,6.10255e+06,363
0.00136,0,1,3.11755e-321,9.99201e-16,6.10255e+06,363
0.00138,0,1,3.23119e-321,2.22045e-16,6.10255e+06,363
0.0014,0,1,3.32506e-321,1.11022e-16,6.10255e+06,363
0.00142,0,1,3.10767e-321,0,6.10255e+06,363
0.00144,0,1,3.1966e-321,8.88178e-16,6.10255e+06,363
0.00146,0,1,3.17684e-321,9.99201e-16,6.10255e+06,363
0.00148,1.4822e-322,1,3.21637e-321,8.88178e-16,6.10255e+06,363
0.0015,1.63042e-322,1,3.19166e-321,1.11022e-16,6.10255e+06,363
0.00152,1.4822e-322,1,3.21143e-321,1.11022e-16,6.10255e+06,363
0.00154,0,1,3.35965e-321,0,6.10255e+06,363
0.00156,0,1,5.43966e-321,0,6.10255e+06,363
0.00158,0,1,6.62295e-320,1.11022e-16,6.10255e+06,363
0.0016,1.22034e-321,1,2.14007e-318,0,6.10255e+06,363
0.00162,2.23416e-320,1,7.26516e-317,1.11022e-16,6.10255e+06,363
0.00164,7.497e-319,1,2.45726e-315,0,6.10255e+06,363
0.00166,2.61613e-317,1,8.26779e-314,0,6.10255e+06,363
0.00168,9.08955e-316,1,2.76716e-312,0,6.10255e+06,363
0.0017,3.14168e-314,1,9.2125e-311,2.22045e-16,6.10255e+06,363
0.00172,1.08019e-312,1,3.0508e-309,0,6.10255e+06,363
0.00174,3.69441e-311,1,1.00493e-307,1.11022e-16,6.10255e+06,363
0.00176,1.25689e-309,1,3.29258e-306,0,6.10255e+06,363
0.00178,4.25349e-308,1,1.07303e-304,1.11022e-16,6.10255e+06,363
0.0018,1.43182e-306,1,3.47815e-303,2.22045e-16,6.10255e+06,363
0.00182,4.79418e-305,1,1.12136e-301,6.66134e-16,6.10255e+06,363
0.00184,1.59669e-303,1,3.59578e-300,8.88178e-16,6.10255e+06,363
0.00186,5.28931e-302,1,1.1468e-298,7.77156e-16,6.10255e+06,363
0.00188,1.74279e-300,1,3.63761e-297,8.88178e-16,6.10255e+06,363
0.0019,5.71152e-299,1,1.14756e-295,1.22125e-15,6.10255e+06,363
0.00192,1.86171e-297,1,3.60047e-294,9.99201e-16,6.10255e+06,363
0.00194,6.03557e-296,1,1.12346e-292,6.66134e-16,6.10255e+06,363
0.00196,1.94611e-294,1,3.48631e-291,3.33067e-16,6.10255e+06,363
0.00198,6.24092e-293,1,1.07591e-289,5.55112e-16,6.10255e+06,363
0.002,1.99048e-291,1,3.30202e-288,1.11022e-16,6.10255e+06,363
0.00202,6.31379e-290,1,1.00779e-286,2.22045e-16,6.10255e+06,363
0.00204,1.99175e-288,1,3.05873e-285,1.11022e-16,6.10255e+06,363
0.00206,1.11638e-287,1,1.68158e-284,2.22045e-16,6.10255e+06,363
0.00208,1.94959e-285,1,2.77071e-282,7.77156e-16,6.10255e+06,363
0.0021,6.04911e-284,1,8.26906e-281,5.55112e-16,6.10255e+06,363
0.00212,1.8665e-282,1,2.45398e-279,4.44089e-16,6.10255e+06,363
0.00214,5.72723e-281,1,7.24149e-278,0,6.10255e+06,363
0.00216,1.74757e-279,1,2.12481e-276,0,6.10255e+06,363
0.00218,5.30264e-278,1,6.19924e-275,0,6.10255e+06,363
0.0022,1.59996e-276,1,1.79836e-273,0,6.10255e+06,363
0.00222,4.80042e-275,1,5.18712e-272,0,6.10255e+06,363
0.00224,1.43217e-273,1,1.48758e-270,0,6.10255e+06,363
0.00226,4.24865e-272,1,4.24159e-269,1.11022e-16,6.10255e+06,363
0.00228,1.25325e-270,1,1.20245e-267,1.11022e-16,6.10255e+06,363
0.0023,3.67577e-269,1,3.3891e-266,0,6.10255e+06,363
0.00232,1.07196e-267,1,9.49675e-265,0,6.10255e+06,363
0.00234,3.10825e-266,1,2.64563e-263,0,6.10255e+06,363
0.00236,8.96103e-265,1,7.32724e-262,0,6.10255e+06,363
0.00238,2.56859e-263,1,2.01744e-260,0,6.10255e+06,363
0.0024,7.32017e-262,1,5.52203e-259,0,6.10255e+06,363
0.00242,2.07409e-260,1,1.50255e-257,0,6.10255e+06,363
0.00244,5.84262e-259,1,4.06429e-256,0,6.10255e+06,363
0.00246,1.63626e-257,1,1.09284e-254,0,6.10255e+06,363
0.00248,4.55572e-256,1,2.92101e-253,0,6.10255e+06,363
0.0025,1.26099e-254,1,7.76083e-252,0,6.10255e+06,363
0.00252,3.46985e-253,1,2.04963e-250,0,6.10255e+06,363
0.00254,9.49171e-252,1,5.3805e-249,0,6.10255e+06,363
0.00256,2.58111e-250,1,1.40393e-247,0,6.10255e+06,363
0.00258,6.97731e-249,1,3.64109e-246,2.22045e-16,6.10255e+06,363
0.0026,1.87492e-247,1,9.38585e-245,0,6.10255e+06,363
0.00262,5.0082e-246,1,2.40472e-243,0,6.10255e+06,363
0.00264,1.32977e-244,1,6.1234e-242,0,6.10255e+06,363
0.00266,3.50962e-243,1,1.54971e-240,0,6.10255e+06,363
0.00268,9.20715e-242,1,3.89791e-239,0,6.10255e+06,363
0.0027,2.40084e-240,1,9.74371e-238,0,6.10255e+06,363
0.00272,6.2225e-239,1,2.42059e-236,0,6.10255e+06,363
0.00274,1.60296e-237,1,5.97601e-235,0,6.10255e+06,363
0.00276,4.10421e-236,1,1.46618e-233,1.11022e-16,6.10255e+06,363
0.00278,1.04442e-234,1,3.57471e-232,2.22045e-16,6.10255e+06,363
0.0028,2.64153e-233,1,8.66085e-231,0,6.10255e+06,363
0.00282,6.63984e-232,1,2.08516e-229,0,6.10255e+06,363
0.00284,1.65873e-230,1,4.98845e-228,1.11022e-16,6.10255e+06,363
0.00286,4.11811e-229,1,1.18586e-226,3.33067e-16,6.10255e+06,363
0.00288,1.01606e-227,1,2.80111e-225,3.33067e-16,6.10255e+06,363
0.0029,2.49133e-226,1,6.57428e-224,1.11022e-16,6.10255e+06,363
0.00292,6.0705e-225,1,1.53313e-222,0,6.10255e+06,363
0.00294,1.46991e-223,1,3.5523e-221,0,6.10255e+06,363
0.00296,3.53686e-222,1,8.17776e-220,0,6.10255e+06,363
0.00298,8.45672e-221,1,1.87043e-218,0,6.10255e+06,363
0.003,2.00924e-219,1,4.25033e-217,0,6.10255e+06,363
0.00302,4.7435e-218,1,9.59547e-216,0,6.10255e+06,363
0.00304,1.11274e-216,1,2.15211e-214,0,6.10255e+06,363
0.00306,2.59364e-215,1,4.79519e-213,0,6.10255e+06,363
0.00308,6.00668e-214,1,1.06141e-211,1.11022e-16,6.10255e+06,363
0.0031,1.38217e-212,1,2.3339e-210,2.22045e-16,6.10255e+06,363
0.00312,3.15995e-211,1,5.09796e-209,5.55112e-16,6.10255e+06,363
0.00314,7.17763e-210,1,1.10615e-207,4.44089e-16,6.10255e+06,363
0.00316,1.61978e-208,1,2.38412e-206,4.44089e-16,6.10255e+06,363
0.00318,3.63158e-207,1,5.10417e-205,2.22045e-16,6.10255e+06,363
0.0032,8.08892e-206,1,1.08541e-203,3.33067e-16,6.10255e+06,363
0.00322,1.78991e-204,1,2.29261e-202,1.11022e-16,6.10255e+06,363
0.00324,3.93465e-203,1,4.80969e-201,0,6.10255e+06,363
0.00326,8.59228e-202,1,1.00218e-199,1.11022e-16,6.10255e+06,363
0.00328,1.86392e-200,1,2.074e-198,4.44089e-16,6.10255e+06,363
0.0033,4.01655e-199,1,4.26279e-197,6.66134e-16,6.10255e+06,363
0.00332,8.59759e-198,1,8.70142e-196,7.77156e-16,6.10255e+06,363
0.00334,1.82805e-196,1,1.76395e-194,8.88178e-16,6.10255e+06,363
0.00336,3.86079e-195,1,3.5512e-193,5.55112e-16,6.10255e+06,363
0.00338,8.099e-194,1,7.09973e-192,4.44089e-16,6.10255e+06,363
0.0034,1.6875e-192,1,1.40954e-190,4.44089e-16,6.10255e+06,363
0.00342,3.49225e-191,1,2.7789e-189,4.44089e-16,6.10255e+06,363
0.00344,7.178e-190,1,5.4402e-188,1.11022e-16,6.10255e+06,363
0.00346,1.46531e-188,1,1.05753e-186,0,6.10255e+06,363
0.00348,2.97078e-187,1,2.04126e-185,0,6.10255e+06,363
0.0035,5.9816e-186,1,3.91216e-184,0,6.10255e+06,363
0.00352,1.19608e-184,1,7.44458e-183,0,6.10255e+06,363
0.00354,2.37515e-183,1,1.40655e-181,0,6.10255e+06,363
0.00356,4.68375e-182,1,2.63848e-180,1.11022e-16,6.10255e+06,363
0.00358,9.17194e-181,1,4.91386e-179,0,6.10255e+06,363
0.0036,1.78354e-179,1,9.08557e-178,3.33067e-16,6.10255e+06,363
0.00362,3.44386e-178,1,1.66774e-176,1.11022e-16,6.10255e+06,363
0.00364,6.60298e-177,1,3.0391e-175,7.77156e-16,6.10255e+06,363
0.00366,1.25706e-175,1,5.49777e-174,2.22045e-16,6.10255e+06,363
0.00368,2.37618e-174,1,9.87287e-173,3.33067e-16,6.10255e+06,363
0.0037,4.45967e-173,1,1.75997e-171,4.44089e-16,6.10255e+06,363
0.00372,8.31023e-172,1,3.11429e-170,1.11022e-15,6.10255e+06,363
0.00374,1.53744e-170,1,5.4701e-169,7.77156e-16,6.10255e+06,363
0.00376,2.8239e-169,1,9.5368e-168,4.44089e-16,6.10255e+06,363
0.00378,5.14934e-168,1,1.65033e-166,7.77156e-16,6.10255e+06,363
0.0038,9.32172e-167,1,2.83456e-165,3.33067e-16,6.10255e+06,363
0.00382,1.67521e-165,1,4.83213e-164,5.55112e-16,6.10255e+06,363
0.00384,2.98856e-164,1,8.17558e-163,6.66134e-16,6.10255e+06,363
0.00386,5.2925e-163,1,1.37282e-161,1.33227e-15,6.10255e+06,363
0.00388,9.30364e-162,1,2.28778e-160,1.22125e-15,6.10255e+06,363
0.0039,1.62341e-160,1,3.78363e-159,4.44089e-16,6.10255e+06,363
0.00392,2.81172e-159,1,6.20993e-158,8.88178e-16,6.10255e+06,363
0.00394,4.83365e-158,1,1.01143e-156,7.77156e-16,6.10255e+06,363
0.00396,8.24753e-157,1,1.63474e-155,1.11022e-16,6.10255e+06,363
0.00398,1.39671e-155,1,2.62188e-154,5.55112e-16,6.10255e+06,363
0.004,2.34752e-154,1,4.1727e-153,9.99201e-16,6.10255e+06,363
0.00402,3.9158e-153,1,6.58952e-152,5.55112e-16,6.10255e+06,363
0.00404,6.48228e-152,1,1.03255e-150,1.33227e-15,6.10255e+06,363
0.00406,1.06492e-150,1,1.60539e-149,6.66134e-16,6.10255e+06,363
0.00408,1.73611e-149,1,2.47657e-148,1.11022e-15,6.10255e+06,363
0.0041,2.80864e-148,1,3.79066e-147,9.99201e-16,6.10255e+06,363
0.00412,1.12641e-147,1,1.47865e-146,7.77156e-16,6.10255e+06,363
0.00414,7.18207e-146,1,8.6733e-145,3.33067e-16,6.10255e+06,363
0.00416,1.13517e-144,1,1.2965e-143,4.44089e-16,6.10255e+06,363
0.00418,1.78023e-143,1,1.92273e-142,3.33067e-16,6.10255e+06,363
0.0042,2.77001e-142,1,2.82889e-141,1.11022e-16,6.10255e+06,363
0.00422,4.27627e-141,1,4.12911e-140,1.11022e-16,6.10255e+06,363
0.00424,6.54957e-140,1,5.97905e-139,4.44089e-16,6.10255e+06,363
0.00426,9.95199e-139,1,8.58889e-138,2.22045e-16,6.10255e+06,363
0.00428,1.50018e-137,1,1.22396e-136,0,6.10255e+06,363
0.0043,2.24336e-136,1,1.73027e-135,4.44089e-16,6.10255e+06,363
0.00432,3.32784e-135,1,2.42646e-134,3.33067e-16,6.10255e+06,363
0.00434,4.89689e-134,1,3.37552e-133,3.33067e-16,6.10255e+06,363
0.00436,7.14755e-133,1,4.65815e-132,6.66134e-16,6.10255e+06,363
0.00438,1.03481e-131,1,6.37659e-131,4.44089e-16,6.10255e+06,363
0.0044,1.48598e-130,1,8.65889e-130,0,6.10255e+06,363
0.00442,2.11641e-129,1,1.16636e-128,1.11022e-16,6.10255e+06,363
0.00444,2.98958e-128,1,1.55848e-127,2.22045e-16,6.10255e+06,363
0.00446,1.12013e-127,1,5.67966e-127,5.55112e-16,6.10255e+06,363
0.00448,5.81877e-126,1,2.71599e-125,9.99201e-16,6.10255e+06,363
0.0045,8.01702e-125,1,3.54233e-124,1.44329e-15,6.10255e+06,363
0.00452,1.09536e-123,1,4.58301e-123,9.99201e-16,6.10255e+06,363
0.00454,1.48403e-122,1,5.88189e-122,1.44329e-15,6.10255e+06,363
0.00456,1.9937e-121,1,7.48842e-121,6.66134e-16,6.10255e+06,363
0.00458,2.65577e-120,1,9.45751e-120,8.88178e-16,6.10255e+06,363
0.0046,3.50767e-119,1,1.1849e-118,1.44329e-15,6.10255e+06,363
0.00462,4.59335e-118,1,1.47269e-117,6.66134e-16,6.10255e+06,363
0.00464,5.96356e-117,1,1.81582e-116,1.44329e-15,6.10255e+06,363
0.00466,7.67594e-116,1,2.22114e-115,1.66533e-15,6.10255e+06,363
0.00468,9.79469e-115,1,2.69541e-114,2.10942e-15,6.10255e+06,363
0.0047,1.23899e-113,1,3.24513e-113,2.44249e-15,6.10255e+06,363
0.00472,1.55361e-112,1,3.87618e-112,2.55351e-15,6.10255e+06,363
0.00474,1.93109e-111,1,4.59358e-111,1.77636e-15,6.10255e+06,363
0.00476,2.37918e-110,1,5.40112e-110,1.33227e-15,6.10255e+06,363
0.00478,2.90537e-109,1,6.30101e-109,9.99201e-16,6.10255e+06,363
0.0048,3.51648e-108,1,7.29356e-108,7.77156e-16,6.10255e+06,363
0.00482,4.21823e-107,1,8.37684e-107,5.55112e-16,6.10255e+06,363
0.00484,5.01474e-106,1,9.54641e-106,1.44329e-15,6.10255e+06,363
0.00486,5.90807e-105,1,1.07951e-104,1.9984e-15,6.10255e+06,363
0.00488,6.89771e-104,1,1.21128e-103,9.99201e-16,6.10255e+06,363
0.0049,7.98009e-103,1,1.34864e-102,7.77156e-16,6.10255e+06,363
0.00492,9.14821e-102,1,1.49001e-101,9.99201e-16,6.10255e+06,363
0.00494,1.03913e-100,1,1.6335e-100,6.66134e-16,6.10255e+06,363
0.00496,1.16949e-99,1,1.777e-99,7.77156e-16,6.10255e+06,363
0.00498,1.30403e-98,1,1.91818e-98,1.55431e-15,6.10255e+06,363
0.005,1.44057e-97,1,2.05456e-97,8.88178e-16,6.10255e+06,363
0.00502,1.57656e-96,1,2.18357e-96,1.77636e-15,6.10255e+06,363
0.00504,1.70924e-95,1,2.30262e-95,1.77636e-15,6.10255e+06,363
0.00506,1.83564e-94,1,2.40919e-94,1.9984e-15,6.10255e+06,363
0.00508,1.95275e-93,1,2.50088e-93,2.66454e-15,6.10255e+06,363
0.0051,2.05759e-92,1,2.57555e-92,1.11022e-15,6.10255e+06,363
0.00512,6.65512e-92,1,8.24063e-92,6.66134e-16,6.10255e+06,363
0.00514,2.21959e-90,1,2.66683e-90,9.99201e-16,6.10255e+06,363
0.00516,2.27212e-89,1,2.68095e-89,1.11022e-15,6.10255e+06,363
0.00518,2.30337e-88,1,2.67318e-88,6.66134e-16,6.10255e+06,363
0.0052,2.31234e-87,1,2.64351e-87,1.11022e-15,6.10255e+06,363
0.00522,2.29864e-86,1,2.59246e-86,8.88178e-16,6.10255e+06,363
0.00524,2.26258e-85,1,2.52105e-85,0,6.10255e+06,363
0.00526,2.2051e-84,1,2.43082e-84,0,6.10255e+06,363
0.00528,2.12776e-83,1,2.32372e-83,3.33067e-16,6.10255e+06,363
0.0053,2.03266e-82,1,2.20208e-82,0,6.10255e+06,363
0.00532,1.92235e-81,1,2.0685e-81,2.22045e-16,6.10255e+06,363
0.00534,1.79972e-80,1,1.92579e-80,5.55112e-16,6.10255e+06,363
0.00536,1.66786e-79,1,1.77683e-79,3.33067e-16,6.10255e+06,363
0.00538,1.52994e-78,1,1.62452e-78,3.33067e-16,6.10255e+06,363
0.0054,1.38907e-77,1,1.47162e-77,3.33067e-16,6.10255e+06,363
0.00542,1.24822e-76,1,1.32074e-76,3.33067e-16,6.10255e+06,363
0.00544,1.11006e-75,1,1.1742e-75,1.11022e-16,6.10255e+06,363
0.00546,9.76939e-75,1,1.034e-74,0,6.10255e+06,363
0.00548,8.50811e-74,1,9.0181e-74,5.55112e-16,6.10255e+06,363
0.0055,7.33191e-73,1,7.78887e-73,1.11022e-16,6.10255e+06,363
0.00552,6.25167e-72,1,6.66126e-72,6.66134e-16,6.10255e+06,363
0.00554,5.27405e-71,1,5.64048e-71,3.33067e-16,6.10255e+06,363
0.00556,4.40188e-70,1,4.72835e-70,0,6.10255e+06,363
0.00558,3.63456e-69,1,3.92368e-69,0,6.10255e+06,363
0.0056,2.96866e-68,1,3.22275e-68,0,6.10255e+06,363
0.00562,2.39848e-67,1,2.61978e-67,0,6.10255e+06,363
0.00564,1.9167e-66,1,2.1075e-66,0,6.10255e+06,363
0.00566,1.51492e-65,1,1.67763e-65,0,6.10255e+06,363
0.00568,1.18417e-64,1,1.32131e-64,0,6.10255e+06,363
0.0057,9.15381e-64,1,1.02958e-63,0,6.10255e+06,363
0.00572,6.99721e-63,1,7.93628e-63,0,6.10255e+06,363
0.00574,5.28878e-62,1,6.05117e-62,0,6.10255e+06,363
0.00576,3.95245e-61,1,4.56339e-61,0,6.10255e+06,363
0.00578,2.92031e-60,1,3.40349e-60,0,6.10255e+06,363
0.0058,2.13313e-59,1,2.51022e-59,0,6.10255e+06,363
0.00582,1.54028e-58,1,1.83068e-58,0,6.10255e+06,363
0.00584,1.09938e-57,1,1.32005e-57,0,6.10255e+06,363
0.00586,7.75594e-57,1,9.41031e-57,4.44089e-16,6.10255e+06,363
0.00588,5.4079e-56,1,6.63165e-56,9.99201e-16,6.10255e+06,363
0.0059,3.7265e-55,1,4.61961e-55,3.33067e-16,6.10255e+06,363
0.00592,2.53759e-54,1,3.18067e-54,7.77156e-16,6.10255e+06,363
0.00594,1.70749e-53,1,2.16434e-53,1.55431e-15,6.10255e+06,363
0.00596,1.13523e-52,1,1.45542e-52,1.44329e-15,6.10255e+06,363
0.00598,7.45701e-52,1,9.67107e-52,2.22045e-15,6.10255e+06,363
0.006,4.83915e-51,1,6.34958e-51,1.55431e-15,6.10255e+06,363
0.00602,3.10218e-50,1,4.11873e-50,1.22125e-15,6.10255e+06,363
0.00604,1.96437e-49,1,2.63933e-49,1.11022e-16,6.10255e+06,363
0.00606,1.2286e-48,1,1.67071e-48,1.11022e-16,6.10255e+06,363
0.00608,7.58907e-48,1,1.04459e-47,0,6.10255e+06,363
0.0061,4.62945e-47,1,6.45055e-47,0,6.10255e+06,363
0.00612,2.78867e-46,1,3.93379e-46,4.44089e-16,6.10255e+06,363
0.00614,1.65866e-45,1,2.36894e-45,1.66533e-15,6.10255e+06,363
0.00616,9.74042e-45,1,1.4086e-44,1.11022e-15,6.10255e+06,363
0.00618,5.64703e-44,1,8.26942e-44,1.11022e-15,6.10255e+06,363
0.0062,3.23184e-43,1,4.79266e-43,0,6.10255e+06,363
0.00622,1.82571e-42,1,2.74192e-42,0,6.10255e+06,363
0.00624,1.01795e-41,1,1.54836e-41,0,6.10255e+06,363
0.00626,5.60147e-41,1,8.6295e-41,0,6.10255e+06,363
0.00628,3.0417e-40,1,4.74634e-40,0,6.10255e+06,363
0.0063,1.6298e-39,1,2.57603e-39,0,6.10255e+06,363
0.00632,8.61616e-39,1,1.3795e-38,1.11022e-16,6.10255e+06,363
0.00634,4.49386e-38,1,7.28838e-38,1.11022e-15,6.10255e+06,363
0.00636,2.31212e-37,1,3.79871e-37,1.44329e-15,6.10255e+06,363
0.00638,1.1734e-36,1,1.95297e-36,1.33227e-15,6.10255e+06,363.001
0.0064,5.87335e-36,1,9.903e-36,1.77636e-15,6.10255e+06,363.001
0.00642,2.89928e-35,1,4.95231e-35,1.66533e-15,6.10255e+06,363.001
0.00644,1.41129e-34,1,2.44216e-34,0,6.10255e+06,363.001
0.00646,6.7736e-34,1,1.18747e-33,0,6.10255e+06,363.001
0.00648,3.20523e-33,1,5.69257e-33,0,6.10255e+06,363.001
0.0065,1.49517e-32,1,2.6902e-32,0,6.10255e+06,363.001
0.00652,6.87495e-32,1,1.25316e-31,0,6.10255e+06,363.001
0.00654,3.11564e-31,1,5.75341e-31,5.55112e-16,6.10255e+06,363.001
0.00656,1.39149e-30,1,2.60311e-30,0,6.10255e+06,363.001
0.00658,6.12374e-30,1,1.16054e-29,0,6.10255e+06,363.001
0.0066,2.65529e-29,1,5.09771e-29,9.99201e-16,6.10255e+06,363.001
0.00662,1.13427e-28,1,2.20592e-28,7.77156e-16,6.10255e+06,363.001
0.00664,4.77287e-28,1,9.40274e-28,4.44089e-16,6.10255e+06,363.001
0.00666,1.97813e-27,1,3.94747e-27,9.99201e-16,6.10255e+06,363.001
0.00668,8.07417e-27,1,1.63205e-26,1.11022e-15,6.10255e+06,363.001
0.0067,3.24533e-26,1,6.64433e-26,6.66134e-16,6.10255e+06,363.001
0.00672,1.28437e-25,1,2.66332e-25,8.88178e-16,6.10255e+06,363.001
0.00674,5.00435e-25,1,1.051e-24,5.55112e-16,6.10255e+06,363.001
0.00676,1.91946e-24,1,4.08258e-24,9.99201e-16,6.10255e+06,363.001
0.00678,7.24657e-24,1,1.56088e-23,9.99201e-16,6.10255e+06,363.001
0.0068,2.69248e-23,1,5.87283e-23,6.66134e-16,6.10255e+06,363.001
0.00682,9.84431e-23,1,2.17427e-22,1.44329e-15,6.10255e+06,363.001
0.00684,3.54139e-22,1,7.91973e-22,6.66134e-16,6.10255e+06,363.001
0.00686,1.25334e-21,1,2.83782e-21,2.22045e-16,6.10255e+06,363.001
0.00688,4.36331e-21,1,1.0002e-20,1.44329e-15,6.10255e+06,363.001
0.0069,1.49402e-20,1,3.46696e-20,1.22125e-15,6.10255e+06,363.001
0.00692,5.03042e-20,1,1.18165e-19,1.55431e-15,6.10255e+06,363.001
0.00694,1.66509e-19,1,3.95894e-19,3.33067e-16,6.10255e+06,363.001
0.00696,5.41621e-19,1,1.30334e-18,0,6.10255e+06,363.002
0.00698,1.73053e-18,1,4.2142e-18,2.22045e-16,6.10255e+06,363.002
0.007,5.43435e-18,1,1.33909e-17,3.33067e-16,6.10255e+06,363.002
0.00702,1.68064e-17,1,4.19023e-17,5.55112e-16,6.10255e+06,363.002
0.00704,5.11472e-17,1,1.29022e-16,8.88178e-16,6.10255e+06,363.002
0.00706,1.54746e-16,1,3.9505e-16,1.66533e-15,6.10255e+06,363.002
0.00708,4.86756e-16,1,1.25925e-15,8.88178e-15,6.10255e+06,363.002
0.0071,1.61911e-15,1,4.25355e-15,3.86358e-14,6.10255e+06,363.002
0.00712,5.69664e-15,1,1.5232e-14,1.41442e-13,6.10255e+06,363.003
0.00714,2.03466e-14,1,5.54331e-14,4.9738e-13,6.10255e+06,363.003
0.00716,7.16483e-14,1,1.98918e-13,1.70353e-12,6.10255e+06,363.003
0.00718,2.46107e-13,1,6.96089e-13,5.69367e-12,6.10255e+06,363.004
0.0072,8.21685e-13,1,2.36669e-12,1.84999e-11,6.10255e+06,363.005
0.00722,2.66486e-12,1,7.81292e-12,5.8434e-11,6.10255e+06,363.008
0.00724,8.39422e-12,1,2.50398e-11,1.79391e-10,6.10255e+06,363.011
0.00726,2.568e-11,1,7.79045e-11,5.35259e-10,6.10255e+06,363.018
0.00728,7.62952e-11,1,2.35281e-10,1.55212e-09,6.10255e+06,363.028
0.0073,2.20123e-10,1,6.89737e-10,4.37388e-09,6.10255e+06,363.046
0.00732,6.16704e-10,1,1.96259e-09,1.19776e-08,6.10255e+06,363.075
0.00734,1.67767e-09,1,5.42005e-09,3.18721e-08,6.10255e+06,363.122
0.00736,4.43122e-09,1,1.4527e-08,8.24063e-08,6.10255e+06,363.198
0.00738,1.13629e-08,1,3.77839e-08,2.07007e-07,6.10255e+06,363.318
0.0074,2.82843e-08,0.999999,9.53571e-08,5.05171e-07,6.10255e+06,363.505
0.00742,6.83318e-08,0.999999,2.33478e-07,1.19745e-06,6.10255e+06,363.793
0.00744,1.60184e-07,0.999997,5.54498e-07,2.75649e-06,6.10255e+06,364.227
0.00746,3.64248e-07,0.999992,1.27701e-06,6.16062e-06,6.10255e+06,364.871
0.00748,8.03117e-07,0.999983,2.85083e-06,1.33632e-05,6.10255e+06,365.813
0.0075,1.71607e-06,0.999964,6.16639e-06,2.81203e-05,6.10255e+06,367.162
0.00752,3.55123e-06,0.999926,1.29159e-05,5.73748e-05,6.10255e+06,369.059
0.00754,7.11177e-06,0.999853,2.61797e-05,0.000113432,6.10255e+06,371.672
0.00756,1.37709e-05,0.999718,5.13135e-05,0.000217147,6.10255e+06,375.192
0.00758,2.5761e-05,0.999475,9.7186e-05,0.000402233,6.10255e+06,379.822
0.0076,4.65206e-05,0.999055,0.000177748,0.000720504,6.10255e+06,385.763
0.00762,8.10556e-05,0.998358,0.000313796,0.00124753,6.10255e+06,393.193
0.00764,0.000136242,0.997241,0.00053469,0.00208782,6.10255e+06,402.243
0.00766,0.000220991,0.995521,0.00087969,0.00337839,6.10255e+06,412.988
0.00768,0.000346235,0.992965,0.00139868,0.00529018,6.10255e+06,425.44
0.0077,0.000524726,0.989296,0.00215215,0.00802689,6.10255e+06,439.553
0.00772,0.000770723,0.984196,0.00321065,0.0118222,6.10255e+06,455.24
0.00774,0.00109967,0.97731,0.00465386,0.016936,6.10255e+06,472.39
0.00776,0.00152792,0.968251,0.00656981,0.0236511,6.10255e+06,490.885
0.00778,0.00207265,0.956602,0.00905424,0.0322707,6.10255e+06,510.606
0.0078,0.00275176,0.941922,0.0122102,0.0431163,6.10255e+06,531.444
0.00782,0.00358394,0.923743,0.0161476,0.0565258,6.10255e+06,553.29
0.00784,0.00458855,0.90158,0.0209821,0.0728496,6.10255e+06,576.028
0.00786,0.00516169,0.88885,0.023773,0.0822153,6.10255e+06,587.69
0.00788,0.0071936,0.843343,0.0338173,0.115646,6.10255e+06,623.596
0.0079,0.00798265,0.825548,0.0377692,0.128701,6.10255e+06,635.781
0.00792,0.0107108,0.763653,0.0515972,0.174039,6.10255e+06,672.498
0.00794,0.0128395,0.715077,0.0625226,0.209561,6.10255e+06,696.655
0.00796,0.015212,0.660748,0.0748007,0.249239,6.10255e+06,720.053
0.00798,0.0178072,0.601164,0.088322,0.292707,6.10255e+06,742.221
0.008,0.0205843,0.537288,0.102864,0.339264,6.10255e+06,762.707
0.00802,0.0234799,0.470603,0.118078,0.38784,6.10255e+06,781.14
0.00804,0.0264107,0.403059,0.133501,0.43703,6.10255e+06,797.304
0.00806,0.0292799,0.33692,0.148594,0.485207,6.10255e+06,811.168
0.00808,0.0319891,0.274488,0.162809,0.530715,6.10255e+06,822.89
0.0081,0.0344528,0.217779,0.175669,0.572099,6.10255e+06,832.766
0.00812,0.0366097,0.168241,0.186838,0.608311,6.10255e+06,841.154
0.00814,0.0384299,0.126597,0.196156,0.638817,6.10255e+06,848.399
0.00816,0.0399137,0.0928541,0.203633,0.663599,6.10255e+06,854.781
0.00818,0.0410856,0.0664435,0.209416,0.683055,6.10255e+06,860.497
0.0082,0.0415667,0.0557036,0.211743,0.690987,6.10255e+06,863.147
0.00822,0.0426592,0.0317067,0.216855,0.708779,6.10255e+06,870.364
0.00824,0.0429259,0.0259838,0.218047,0.713044,6.10255e+06,872.542
0.00826,0.0435091,0.013842,0.220506,0.722143,6.10255e+06,878.422
0.00828,0.043762,0.00885744,0.221465,0.725916,6.10255e+06,881.813
0.0083,0.04394,0.00555054,0.222064,0.728445,6.10255e+06,884.797
0.00832,0.0440649,0.0034071,0.22242,0.730108,6.10255e+06,887.395
0.00834,0.0441526,0.00204913,0.222617,0.731181,6.10255e+06,889.631
0.00836,0.0442146,0.0012081,0.222715,0.731862,6.10255e+06,891.537
0.00838,0.0442583,0.000709949,0.222751,0.732281,6.10255e+06,893.128
0.0084,0.0442897,0.000419086,0.222754,0.732537,6.10255e+06,894.442
0.00842,0.0443144,0.000231807,0.222744,0.73271,6.10255e+06,895.564
0.00844,0.044333,0.00012554,0.222725,0.732816,6.10255e+06,896.487
0.00846,0.0443473,6.65942e-05,0.222704,0.732882,6.10255e+06,897.238
0.00848,0.0443585,3.45901e-05,0.222684,0.732923,6.10255e+06,897.844
0.0085,0.0443672,1.75911e-05,0.222666,0.732949,6.10255e+06,898.329
0.00852,0.0443742,8.75865e-06,0.222651,0.732966,6.10255e+06,898.715
0.00854,0.0443772,6.13129e-06,0.222645,0.732972,6.10255e+06,898.875
0.00856,0.0443842,2.03721e-06,0.22263,0.732984,6.10255e+06,899.255
0.00858,0.0443861,1.39605e-06,0.222626,0.732987,6.10255e+06,899.353
0.0086,0.0443905,4.35102e-07,0.222616,0.732993,6.10255e+06,899.581
0.00862,0.0443927,1.94735e-07,0.222612,0.732995,6.10255e+06,899.689
0.00864,0.0443944,8.531e-08,0.222609,0.732997,6.10255e+06,899.771
0.00866,0.0443958,3.65807e-08,0.222606,0.732998,6.10255e+06,899.833
0.00868,0.0443968,1.53531e-08,0.222604,0.732999,6.10255e+06,899.878
0.0087,0.0443976,6.30705e-09,0.222603,0.732999,6.10255e+06,899.912
0.00872,0.0443982,2.53597e-09,0.222602,0.733,6.10255e+06,899.937
0.00874,0.0443987,9.98034e-10,0.222602,0.733,6.10255e+06,899.956
0.00876,0.044399,3.8444e-10,0.222601,0.733,6.10255e+06,899.969
0.00878,0.0443993,1.44939e-10,0.222601,0.733,6.10255e+06,899.978
0.0088,0.0443995,5.34792e-11,0.222601,0.733,6.10255e+06,899.985
0.00882,0.0443996,1.93083e-11,0.2226,0.733,6.10255e+06,899.989
0.00884,0.0443997,7.30287e-12,0.2226,0.733,6.10255e+06,899.993
0.00886,0.0443998,2.76955e-12,0.2226,0.733,6.10255e+06,899.995
0.00888,0.0443998,1.62033e-12,0.2226,0.733,6.10255e+06,899.996
0.0089,0.0443999,3.12284e-13,0.2226,0.733,6.10255e+06,899.998
0.00892,0.0443999,1.78532e-13,0.2226,0.733,6.10255e+06,899.998
0.00894,0.0444,3.24112e-14,0.2226,0.733,6.10255e+06,899.999
0.00896,0.0444,1.02058e-14,0.2226,0.733,6.10255e+06,899.999
0.00898,0.0444,3.21825e-15,0.2226,0.733,6.10255e+06,900
0.009,0.0444,1.04553e-15,0.2226,0.733,6.10255e+06,900
0.00902,0.0444,3.57201e-16,0.2226,0.733,6.10255e+06,900
0.00904,0.0444,1.26671e-16,0.2226,0.733,6.10255e+06,900
0.00906,0.0444,4.55081e-17,0.2226,0.733,6.10255e+06,900
0.00908,0.0444,1.63152e-17,0.2226,0.733,6.10255e+06,900
0.0091,0.0444,5.79749e-18,0.2226,0.733,6.10255e+06,900
0.00912,0.0444,2.0364e-18,0.2226,0.733,6.10255e+06,900
0.00914,0.0444,7.06368e-19,0.2226,0.733,6.10255e+06,900
0.00916,0.0444,2.41884e-19,0.2226,0.733,6.10255e+06,900
0.00918,0.0444,8.17633e-20,0.2226,0.733,6.10255e+06,900
0.0092,0.0444,2.72834e-20,0.2226,0.733,6.10255e+06,900
0.00922,0.0444,1.56846e-20,0.2226,0.733,6.10255e+06,900
0.00924,0.0444,2.92318e-21,0.2226,0.733,6.10255e+06,900
0.00926,0.0444,9.3872e-22,0.2226,0.733,6.10255e+06,900
0.00928,0.0444,2.97665e-22,0.2226,0.733,6.10255e+06,900
0.0093,0.0444,9.32107e-23,0.2226,0.733,6.10255e+06,900
0.00932,0.0444,2.88258e-23,0.2226,0.733,6.10255e+06,900
0.00934,0.0444,8.80453e-24,0.2226,0.733,6.10255e+06,900
0.00936,0.0444,2.65628e-24,0.2226,0.733,6.10255e+06,900
0.00938,0.0444,7.91618e-25,0.2226,0.733,6.10255e+06,900
0.0094,0.0444,2.33058e-25,0.2226,0.733,6.10255e+06,900
0.00942,0.0444,6.77871e-26,0.2226,0.733,6.10255e+06,900
0.00944,0.0444,1.94804e-26,0.2226,0.733,6.10255e+06,900
0.00946,0.0444,5.53156e-27,0.2226,0.733,6.10255e+06,900
0.00948,0.0444,1.55212e-27,0.2226,0.733,6.10255e+06,900
0.0095,0.0444,4.30386e-28,0.2226,0.733,6.10255e+06,900
0.00952,0.0444,1.17945e-28,0.2226,0.733,6.10255e+06,900
0.00954,0.0444,3.1946e-29,0.2226,0.733,6.10255e+06,900
0.00956,0.0444,1.65534e-29,0.2226,0.733,6.10255e+06,900
0.00958,0.0444,2.26336e-30,0.2226,0.733,6.10255e+06,900
0.0096,0.0444,5.92121e-31,0.2226,0.733,6.10255e+06,900
0.00962,0.0444,1.53143e-31,0.2226,0.733,6.10255e+06,900
0.00964,0.0444,3.91597e-32,0.2226,0.733,6.10255e+06,900
0.00966,0.0444,9.90071e-33,0.2226,0.733,6.10255e+06,900
0.00968,0.0444,2.47517e-33,0.2226,0.733,6.10255e+06,900
0.0097,0.0444,6.11901e-34,0.2226,0.733,6.10255e+06,900
0.00972,0.0444,1.49597e-34,0.2226,0.733,6.10255e+06,900
0.00974,0.0444,3.61704e-35,0.2226,0.733,6.10255e+06,900
0.00976,0.0444,8.64969e-36,0.2226,0.733,6.10255e+06,900
0.00978,0.0444,2.04593e-36,0.2226,0.733,6.10255e+06,900
0.0098,0.0444,4.78682e-37,0.2226,0.733,6.10255e+06,900
0.00982,0.0444,1.10789e-37,0.2226,0.733,6.10255e+06,900
0.00984,0.0444,2.53665e-38,0.2226,0.733,6.10255e+06,900
0.00986,0.0444,5.74592e-39,0.2226,0.733,6.10255e+06,900
0.00988,0.0444,1.28762e-39,0.2226,0.733,6.10255e+06,900
0.0099,0.0444,6.07054e-40,0.2226,0.733,6.10255e+06,900
0.00992,0.0444,6.24807e-41,0.2226,0.733,6.10255e+06,900
0.00994,0.0444,1.34257e-41,0.2226,0.733,6.10255e+06,900
0.00996,0.0444,2.74375e-42,0.2226,0.733,6.10255e+06,900
0.00998,0.0444,4.4206e-43,0.2226,0.733,6.10255e+06,900
0.01,0.0444,1.05988e-43,0.2226,0.733,6.10255e+06,900
